/*--------------------------------*- C++ -*----------------------------------*\
| =========                 |                                                 |
| \\      /  F ield         | OpenFOAM: The Open Source CFD Toolbox           |
|  \\    /   O peration     | Version:  2312                                  |
|   \\  /    A nd           | Website:  www.openfoam.com                      |
|    \\/     M anipulation  |                                                 |
\*---------------------------------------------------------------------------*/
FoamFile
{
    version     2.0;
    format      ascii;
    arch        "LSB;label=32;scalar=64";
    class       volScalarField;
    location    "13122.1";
    object      alpha.sludge;
}
// * * * * * * * * * * * * * * * * * * * * * * * * * * * * * * * * * * * * * //

dimensions      [0 0 0 0 0 0 0];

internalField   nonuniform List<scalar> 
3780
(
0.000560047
0.000556742
0.000554265
0.000552279
0.000550701
0.000549762
0.000549772
0.000551122
0.000554049
0.000558932
0.000566395
0.000577649
0.000594494
0.000618924
0.000653134
0.00069881
0.000750338
0.000803772
0.00085651
0.000905627
0.000944768
0.000972781
0.000998031
0.00101863
0.00103484
0.00104686
0.00105617
0.00106451
0.00107336
0.00108306
0.00109369
0.0011056
0.00111926
0.00113519
0.00115373
0.00118118
0.0012175
0.00125571
0.00128379
0.00129048
0.000572809
0.000564358
0.000558554
0.000554267
0.000551248
0.000549549
0.000549371
0.000551024
0.00055493
0.000561638
0.000571909
0.000587055
0.000608762
0.000639105
0.0006805
0.000732575
0.000789041
0.00084604
0.000900192
0.000949221
0.0009859
0.00101188
0.00103272
0.00104865
0.00106115
0.00107055
0.00107862
0.00108652
0.00109467
0.00110329
0.00111333
0.00112601
0.00114246
0.00116388
0.00119134
0.00123143
0.00126448
0.00129583
0.00130978
0.00131092
0.000574064
0.00056339
0.000556189
0.000550816
0.000546937
0.000544609
0.000544049
0.000545603
0.000549773
0.000557245
0.000568888
0.000585968
0.000610094
0.000643251
0.000687197
0.000741903
0.000801026
0.000859866
0.000914012
0.000960406
0.000992416
0.00101292
0.00102753
0.00103747
0.00104381
0.00104783
0.0010508
0.00105356
0.00105691
0.00106206
0.0010704
0.00108297
0.00110087
0.00112538
0.00115809
0.00119758
0.00123503
0.00127309
0.00129592
0.00129777
0.000575447
0.000561597
0.000552279
0.00054527
0.00054003
0.000536559
0.000535042
0.000535806
0.000539329
0.000546274
0.000557516
0.000574219
0.000597899
0.000630362
0.000673304
0.00072664
0.000787085
0.000847426
0.000902063
0.00094675
0.000974611
0.000990396
0.000999404
0.00100323
0.00100349
0.0010017
0.000999241
0.000997352
0.000997171
0.001
0.00100675
0.00101827
0.00103562
0.00106008
0.00109326
0.00113497
0.0011813
0.00122811
0.00125713
0.00125629
0.000577379
0.000559573
0.000547565
0.00053843
0.000531368
0.000526288
0.000523328
0.000522767
0.000525023
0.000530685
0.000540575
0.000555654
0.000577279
0.000607147
0.000646949
0.000697365
0.000756087
0.000817794
0.000874392
0.000919289
0.000944893
0.000957507
0.000962503
0.000961935
0.000957819
0.000951976
0.00094598
0.000941165
0.000938672
0.000939531
0.000944491
0.000954418
0.000970376
0.000993712
0.00102614
0.00106881
0.00111922
0.00117366
0.00120789
0.00120818
0.000580166
0.000557621
0.000542347
0.000530617
0.000521309
0.000514222
0.00050944
0.000507196
0.000507848
0.000511907
0.000520079
0.000533112
0.000552216
0.000578887
0.000614812
0.000661137
0.000716995
0.000777986
0.00083669
0.000883897
0.000909311
0.000920688
0.00092368
0.000920787
0.000914318
0.000906236
0.000898146
0.000891346
0.000886904
0.000885731
0.000888616
0.0008965
0.000910561
0.000932321
0.00096375
0.00100677
0.00106002
0.00112156
0.00116188
0.00116519
0.000583953
0.000555926
0.000536845
0.000522084
0.000510144
0.000500704
0.0004938
0.000489623
0.000488478
0.000490792
0.000497128
0.000508266
0.000525083
0.000548837
0.000581099
0.00062328
0.000675468
0.000734733
0.000794095
0.000844024
0.000870902
0.000882604
0.00088523
0.000881586
0.000874185
0.00086503
0.000855669
0.000847319
0.000840994
0.000837633
0.000838127
0.000843524
0.000855153
0.000874766
0.000904698
0.000947474
0.00100361
0.00107386
0.0011199
0.00112617
0.000588844
0.000554653
0.000531277
0.000513077
0.000498148
0.000486046
0.00047677
0.000470492
0.000467486
0.000468118
0.000472872
0.000482423
0.0004974
0.000518859
0.000548187
0.000586836
0.000635459
0.000692249
0.000751257
0.000802675
0.000831422
0.000844291
0.0008475
0.000844023
0.000836464
0.000826835
0.000816626
0.000806964
0.000798841
0.000793287
0.000791261
0.000793882
0.000802605
0.000819411
0.000847061
0.000888948
0.000948307
0.00102864
0.00108239
0.00109228
0.000594896
0.000553924
0.000525819
0.000503805
0.00048554
0.000470477
0.000458602
0.000450092
0.000445214
0.000444296
0.000447747
0.000456092
0.000469813
0.000489792
0.000517178
0.000553298
0.00059901
0.000653218
0.000710869
0.000762501
0.000792193
0.000806153
0.000810217
0.000807235
0.000799822
0.000789959
0.000779093
0.000768277
0.000758606
0.000751141
0.000746809
0.000746701
0.000752293
0.00076573
0.000790213
0.000830362
0.000892301
0.00098312
0.00104823
0.0010629
0.000602183
0.000553847
0.000520619
0.00049442
0.000472466
0.000454135
0.000439432
0.000428574
0.000421846
0.000419555
0.000422023
0.000429614
0.000442839
0.000462255
0.000488757
0.000523436
0.000567078
0.000618864
0.000674341
0.000724581
0.000753919
0.000768151
0.000772669
0.000770082
0.000762832
0.000752822
0.000741469
0.000729826
0.000719148
0.000710383
0.000704326
0.000701915
0.000704504
0.000714233
0.000734603
0.000771404
0.000833683
0.000933977
0.00101712
0.00103859
0.00061077
0.000554472
0.000515737
0.00048496
0.000458931
0.000436997
0.000419235
0.000405942
0.00039746
0.000394106
0.000396139
0.000403798
0.000417359
0.000437141
0.000463733
0.000497874
0.000540053
0.00058936
0.000641626
0.000688625
0.000715945
0.000729287
0.000733547
0.000731046
0.000723999
0.000714162
0.000702819
0.000691045
0.000680123
0.000670746
0.000663509
0.000659187
0.000659022
0.000665126
0.000681188
0.000713773
0.00077479
0.000880122
0.000992733
0.00102093
0.000620338
0.00055535
0.000510636
0.000474787
0.000444219
0.000418325
0.000397319
0.000381625
0.000371682
0.000367847
0.000370314
0.00037913
0.00039428
0.000415639
0.000443222
0.000477318
0.000517967
0.000563882
0.000610984
0.000652109
0.000675473
0.000686954
0.000690688
0.000688562
0.000682363
0.000673506
0.000663101
0.000652362
0.000642026
0.00063248
0.000624255
0.000618137
0.000615462
0.000618483
0.000630967
0.00065919
0.000714438
0.000815224
0.000980645
0.001006
0.000629216
0.000556407
0.000506649
0.000466245
0.000431394
0.000401615
0.000377275
0.000358939
0.000347183
0.000342475
0.000344976
0.000354569
0.000370924
0.000392522
0.000418921
0.000450177
0.000486205
0.000526043
0.000566916
0.000603928
0.000627343
0.000641405
0.000648878
0.000650736
0.00064814
0.000642214
0.00063403
0.000624456
0.000613895
0.000602913
0.000592237
0.000582818
0.000576684
0.000577101
0.000588858
0.000617703
0.000669676
0.000755541
0.00085651
0.000952117
0.000640713
0.000563654
0.000510569
0.000467004
0.000428875
0.00039563
0.000367668
0.000345606
0.000330143
0.000321953
0.000321411
0.000328535
0.000342995
0.000364059
0.000389626
0.000418963
0.000451701
0.000487077
0.000523262
0.000557057
0.000580327
0.000596133
0.00060703
0.000613304
0.000615567
0.000614508
0.000610809
0.000605092
0.000597784
0.000588989
0.000578594
0.000566354
0.000551897
0.000535377
0.00051803
0.000500692
0.000484481
0.00047107
0.000460657
0.000452698
0.000654112
0.000573055
0.000516747
0.000470164
0.000428931
0.000392398
0.000360873
0.000335003
0.000315566
0.00030346
0.000299312
0.000303439
0.00031562
0.000335227
0.000360138
0.000388482
0.000419364
0.000451918
0.00048476
0.000515687
0.000537913
0.000553908
0.000566142
0.000574691
0.00057989
0.000582185
0.00058204
0.000579898
0.000576146
0.000571102
0.000564987
0.000557915
0.00054984
0.000540585
0.000530214
0.000519048
0.000507587
0.000496384
0.000485685
0.00047547
0.000669079
0.000584241
0.000524875
0.000475415
0.000431187
0.000391425
0.000356379
0.00032668
0.000303143
0.000286674
0.000278154
0.000278301
0.000287219
0.000304348
0.000328376
0.000356136
0.000385992
0.000416828
0.000447411
0.000476111
0.000497153
0.000512715
0.000525243
0.00053476
0.000541479
0.000545701
0.000547758
0.000547983
0.000546693
0.000544171
0.000540666
0.000536389
0.000531496
0.000526075
0.000520157
0.000513745
0.000506873
0.000499635
0.000492131
0.000484383
0.000685479
0.000597052
0.000534806
0.000482638
0.000435581
0.000392733
0.000354251
0.000320702
0.000292886
0.000271748
0.000258294
0.000253471
0.000257945
0.000271579
0.000293362
0.000320335
0.000349481
0.000379243
0.000408322
0.00043536
0.000455293
0.000470174
0.000482439
0.000492131
0.000499425
0.000504547
0.000507754
0.000509302
0.000509443
0.000508416
0.000506442
0.000503727
0.000500453
0.000496779
0.000492824
0.000488662
0.000484317
0.000479776
0.000474987
0.000469841
0.000703218
0.000611374
0.000546426
0.000491737
0.00044205
0.000396321
0.00035459
0.000317319
0.000285224
0.000259221
0.000240369
0.000229776
0.000228424
0.000236903
0.000254679
0.000279928
0.000308207
0.000337053
0.000364963
0.000390646
0.000409518
0.000423578
0.000435238
0.000444581
0.000451776
0.000457023
0.00046053
0.00046251
0.000463166
0.000462696
0.000461286
0.000459114
0.00045635
0.00045315
0.000449659
0.000445995
0.000442247
0.000438459
0.000434621
0.000430647
0.000722313
0.00062719
0.000559704
0.000502675
0.000450573
0.000402211
0.000357504
0.000316781
0.000280621
0.000249827
0.000225407
0.000208529
0.00020039
0.00020198
0.00021376
0.000234684
0.000261222
0.000288772
0.000315324
0.000339532
0.000357174
0.000370187
0.000380904
0.000389441
0.00039597
0.000400673
0.000403734
0.00040533
0.000405632
0.000404806
0.000403008
0.000400391
0.000397105
0.000393297
0.000389109
0.000384676
0.000380114
0.000375521
0.000370949
0.000366388
0.000742866
0.000644566
0.000574681
0.000515475
0.000461165
0.000410434
0.000363077
0.000319281
0.000279461
0.00024424
0.000214468
0.000191225
0.000175771
0.000169359
0.000172912
0.0001866
0.000208862
0.000233982
0.000258352
0.000280426
0.000296295
0.000307785
0.000317046
0.000324201
0.000329409
0.000332832
0.000334624
0.000334933
0.0003339
0.000331662
0.000328349
0.00032409
0.000319036
0.00031334
0.000307157
0.000300643
0.000293949
0.000287194
0.00028053
0.000274004
0.000765056
0.000663646
0.00059147
0.00053022
0.000473882
0.000421032
0.00037136
0.000324925
0.000281976
0.000242932
0.000208413
0.000179276
0.00015663
0.000141779
0.000135962
0.000139845
0.000153064
0.000173729
0.000194674
0.000213466
0.000226603
0.000235759
0.000242759
0.000247707
0.00025073
0.000251943
0.000251467
0.000249412
0.000245899
0.000241055
0.000234999
0.00022782
0.00021958
0.000210534
0.000200975
0.000191203
0.000181492
0.000172084
0.000163095
0.000154557
0.000789132
0.000684645
0.000610246
0.000547045
0.000488818
0.000434056
0.000382376
0.00033373
0.000288222
0.000246086
0.000207702
0.000173643
0.000144715
0.000121995
0.000106756
0.000100128
0.000102347
0.000112357
0.000127431
0.000141763
0.000151141
0.000156998
0.000160737
0.000162507
0.000162438
0.000160544
0.000156947
0.000151784
0.000145112
0.000137171
0.000128354
0.000119161
0.000110042
0.000101126
9.25127e-05
8.42836e-05
7.65044e-05
6.92192e-05
6.24309e-05
5.59972e-05
0.000815395
0.000707826
0.000631227
0.000566122
0.00050609
0.000449565
0.000396117
0.000345626
0.000298088
0.000253585
0.000212299
0.000174545
0.000140806
0.00011178
8.84139e-05
7.18435e-05
6.29672e-05
6.14528e-05
6.54045e-05
7.21041e-05
7.68564e-05
7.91867e-05
7.97749e-05
7.87225e-05
7.59412e-05
7.15422e-05
6.61163e-05
6.0235e-05
5.4423e-05
4.8757e-05
4.32665e-05
3.80269e-05
3.31453e-05
2.86951e-05
2.46998e-05
2.11577e-05
1.80497e-05
1.53438e-05
1.30017e-05
1.09481e-05
0.000844172
0.000733471
0.000654647
0.000587631
0.000525813
0.000467596
0.000412534
0.000360466
0.000311316
0.000265058
0.000221731
0.000181469
0.000144516
0.000111262
8.22705e-05
5.83273e-05
4.04337e-05
2.93957e-05
2.44853e-05
2.31509e-05
2.28763e-05
2.24941e-05
2.16776e-05
2.02998e-05
1.83581e-05
1.61857e-05
1.3989e-05
1.18957e-05
1.00011e-05
8.34314e-06
6.91305e-06
5.69238e-06
4.6624e-06
3.80289e-06
3.09189e-06
2.50747e-06
2.02922e-06
1.63887e-06
1.32141e-06
1.06404e-06
0.000875784
0.000761852
0.000680724
0.00061173
0.000548073
0.000488145
0.000431515
0.000378011
0.000327516
0.00027993
0.000235196
0.000193325
0.000154426
0.00011872
8.65699e-05
5.85097e-05
3.53439e-05
1.83147e-05
8.65627e-06
4.90399e-06
3.6956e-06
3.15979e-06
2.76213e-06
2.39452e-06
2.03416e-06
1.69989e-06
1.40542e-06
1.15368e-06
9.427e-07
7.68244e-07
6.2497e-07
5.07699e-07
4.11967e-07
3.34029e-07
2.70733e-07
2.1942e-07
1.77874e-07
1.44271e-07
1.1715e-07
9.54348e-08
0.00091053
0.000793212
0.000709643
0.000638542
0.000572913
0.000511158
0.000452886
0.000397948
0.000346207
0.000297514
0.000251733
0.000208783
0.000168668
0.000131513
9.75842e-05
6.73221e-05
4.14165e-05
2.10322e-05
8.07089e-06
2.78491e-06
1.32536e-06
8.15962e-07
5.61975e-07
4.14967e-07
3.19909e-07
2.52694e-07
2.02403e-07
1.63439e-07
1.32607e-07
1.07937e-07
8.80441e-08
7.19175e-08
5.88015e-08
4.81156e-08
3.94043e-08
3.2303e-08
2.6517e-08
2.18086e-08
1.7992e-08
1.49475e-08
0.000948697
0.00082778
0.000741575
0.000668177
0.000600366
0.000536566
0.000476461
0.000419952
0.000366911
0.000317156
0.000270483
0.000226714
0.000185743
0.000147578
0.000112384
8.0511e-05
5.25505e-05
2.94989e-05
1.31054e-05
4.71927e-06
2.03613e-06
1.07797e-06
6.15566e-07
3.68078e-07
2.28119e-07
1.46147e-07
9.67513e-08
6.61785e-08
4.6716e-08
3.39213e-08
2.52379e-08
1.91591e-08
1.4783e-08
1.15582e-08
9.13794e-09
7.29521e-09
5.87691e-09
4.77704e-09
3.92175e-09
3.26426e-09
0.000990649
0.000865862
0.000776772
0.000700828
0.000630543
0.000564382
0.000502133
0.000443787
0.000389255
0.00033835
0.000290814
0.000246375
0.0002048
0.000165953
0.000129847
9.66941e-05
6.69537e-05
4.14394e-05
2.15746e-05
9.08303e-06
4.09666e-06
2.17303e-06
1.22957e-06
7.19897e-07
4.29791e-07
2.60309e-07
1.5978e-07
9.94593e-08
6.28671e-08
4.0407e-08
2.64381e-08
1.7626e-08
1.1977e-08
8.27765e-09
5.80135e-09
4.11471e-09
2.95465e-09
2.15421e-09
1.60437e-09
1.235e-09
0.0010369
0.000907916
0.00081564
0.000736843
0.000663717
0.000594771
0.00052994
0.000469345
0.000412983
0.000360691
0.000312191
0.000267138
0.000225178
0.000186011
0.000149458
0.000115529
8.44923e-05
5.69547e-05
3.39912e-05
1.70451e-05
8.44151e-06
4.62515e-06
2.66657e-06
1.58879e-06
9.63117e-07
5.89911e-07
3.64444e-07
2.2724e-07
1.43225e-07
9.13937e-08
5.91032e-08
3.87333e-08
2.56914e-08
1.72222e-08
1.16387e-08
7.87415e-09
5.27962e-09
3.48791e-09
2.29482e-09
1.5573e-09
0.00108798
0.000954491
0.000858723
0.000776748
0.000700358
0.000628108
0.000560118
0.0004967
0.000437978
0.000383867
0.000334106
0.00028832
0.000246066
0.000206899
0.000170432
0.000136425
0.000104866
7.60695e-05
5.07689e-05
2.99567e-05
1.6971e-05
9.94381e-06
5.91484e-06
3.60845e-06
2.23833e-06
1.40022e-06
8.80634e-07
5.57289e-07
3.55973e-07
2.30471e-07
1.51823e-07
1.01953e-07
6.96919e-08
4.8243e-08
3.35506e-08
2.3304e-08
1.61143e-08
1.0874e-08
6.77975e-09
3.87592e-09
0.00114418
0.00100615
0.000906744
0.000821367
0.000741312
0.000665185
0.000593337
0.000526334
0.000464491
0.00040785
0.000356222
0.000309253
0.000266472
0.000227338
0.000191301
0.000157877
0.000126731
9.77762e-05
7.12967e-05
4.79802e-05
3.13943e-05
2.06146e-05
1.31506e-05
8.34737e-06
5.33995e-06
3.44066e-06
2.22383e-06
1.43991e-06
9.3659e-07
6.16116e-07
4.13902e-07
2.86848e-07
2.06274e-07
1.53391e-07
1.16319e-07
8.7913e-08
6.368e-08
4.43918e-08
3.17217e-08
1.95227e-08
0.00120926
0.00106667
0.000963552
0.000874575
0.000790404
0.000709656
0.000632948
0.000561189
0.000494976
0.000434549
0.000379854
0.000330624
0.00028642
0.00024667
0.000210719
0.000177889
0.000147554
0.00011924
9.27552e-05
6.84741e-05
5.00228e-05
3.68018e-05
2.62212e-05
1.81547e-05
1.23329e-05
8.31745e-06
5.61196e-06
3.79763e-06
2.57943e-06
1.76397e-06
1.22458e-06
8.76211e-07
6.60269e-07
5.34732e-07
4.67321e-07
4.32164e-07
4.06881e-07
3.37317e-07
2.34295e-07
1.70709e-07
0.00129415
0.00114344
0.00103309
0.000937383
0.000846129
0.000757911
0.000673652
0.00059467
0.000521893
0.000455801
0.000396465
0.000343692
0.000297073
0.000256018
0.000219797
0.00018758
0.00015849
0.000131666
0.00010638
8.24538e-05
6.35788e-05
4.94774e-05
3.75371e-05
2.77235e-05
1.99676e-05
1.41099e-05
9.86772e-06
6.88161e-06
4.80897e-06
3.38361e-06
2.42092e-06
1.79847e-06
1.43521e-06
1.27464e-06
1.27244e-06
1.392e-06
1.60792e-06
1.91333e-06
2.33271e-06
2.99846e-06
0.00136086
0.00119997
0.00108072
0.000976355
0.000876001
0.000778555
0.000685499
0.00059869
0.000519349
0.000448013
0.000384769
0.000329383
0.000281369
0.00024003
0.000204509
0.000173847
0.000147042
0.000123118
0.000101222
8.08079e-05
6.45402e-05
5.21727e-05
4.14161e-05
3.2241e-05
2.46146e-05
1.84745e-05
1.37017e-05
1.01113e-05
7.47705e-06
5.57685e-06
4.22891e-06
3.30439e-06
2.72343e-06
2.4419e-06
2.43039e-06
2.65241e-06
3.05733e-06
3.59229e-06
4.22209e-06
4.95426e-06
0.00142677
0.00125635
0.00112873
0.00101572
0.000905937
0.000798753
0.000696368
0.000601158
0.00051468
0.000437618
0.000370075
0.000311768
0.000262125
0.000220334
0.000185397
0.000156201
0.000131596
0.000110467
9.18139e-05
7.48461e-05
6.13865e-05
5.10761e-05
4.19622e-05
3.40014e-05
2.71713e-05
2.14457e-05
1.67754e-05
1.3074e-05
1.02175e-05
8.05983e-06
6.45982e-06
5.30572e-06
4.52823e-06
4.08757e-06
3.94471e-06
4.04722e-06
4.32756e-06
4.71261e-06
5.13577e-06
5.65757e-06
0.00149821
0.00131826
0.0011819
0.00105977
0.000939792
0.0008219
0.000709112
0.000604532
0.000510155
0.000426811
0.00035458
0.000293094
0.000241658
0.000199303
0.000164847
0.000136976
0.000114354
9.572e-05
7.99594e-05
6.61152e-05
5.53138e-05
4.70574e-05
3.97085e-05
3.31982e-05
2.74988e-05
2.25964e-05
1.84711e-05
1.50836e-05
1.23683e-05
1.02378e-05
8.59762e-06
7.37819e-06
6.52324e-06
5.98651e-06
5.72217e-06
5.67564e-06
5.78514e-06
5.99165e-06
6.25564e-06
6.6004e-06
0.00157529
0.00138597
0.0012406
0.00110877
0.000977697
0.000847995
0.00072369
0.000608785
0.000505813
0.000415763
0.00033865
0.000273966
0.000220838
0.000178087
0.00014428
0.000117838
9.71782e-05
8.08589e-05
6.76497e-05
5.64953e-05
4.80107e-05
4.15882e-05
3.5875e-05
3.07804e-05
2.62659e-05
2.23174e-05
1.89248e-05
1.60693e-05
1.37156e-05
1.18134e-05
1.03058e-05
9.1429e-06
8.29328e-06
7.71283e-06
7.35816e-06
7.18292e-06
7.13994e-06
7.18732e-06
7.29858e-06
7.49602e-06
0.00165973
0.00146115
0.00130623
0.00116389
0.00102055
0.000877699
0.000740534
0.000614154
0.000501775
0.000404572
0.000322445
0.000254668
0.000200117
0.000157321
0.000124505
9.97317e-05
8.11144e-05
6.70076e-05
5.60893e-05
4.72258e-05
4.06796e-05
3.57966e-05
3.14802e-05
2.76284e-05
2.41936e-05
2.11562e-05
1.85069e-05
1.62338e-05
1.43175e-05
1.27297e-05
1.14379e-05
1.04109e-05
9.62127e-06
9.04121e-06
8.63796e-06
8.37599e-06
8.22112e-06
8.14309e-06
8.11895e-06
8.14267e-06
0.00175237
0.00154514
0.00138004
0.00122624
0.00106932
0.00091179
0.000760192
0.000620939
0.000498142
0.000393238
0.000305963
0.000235276
0.000179704
0.000137365
0.000106015
8.32458e-05
6.6808e-05
5.48454e-05
4.59564e-05
3.90035e-05
3.40247e-05
3.03761e-05
2.7184e-05
2.43454e-05
2.1808e-05
1.95474e-05
1.75516e-05
1.58111e-05
1.43143e-05
1.30456e-05
1.19867e-05
1.11186e-05
1.04221e-05
9.87686e-06
9.46026e-06
9.14992e-06
8.92267e-06
8.75611e-06
8.62791e-06
8.50611e-06
0.00185294
0.00163921
0.00146368
0.00129753
0.00112571
0.000951855
0.000783984
0.000630079
0.000495474
0.000382053
0.000289351
0.000215906
0.000159755
0.00011844
8.906e-05
6.86094e-05
5.4438e-05
4.45105e-05
3.73879e-05
3.2003e-05
2.82633e-05
2.55746e-05
2.32519e-05
2.11989e-05
1.93637e-05
1.77193e-05
1.6252e-05
1.4953e-05
1.38146e-05
1.28278e-05
1.19823e-05
1.12667e-05
1.06687e-05
1.01749e-05
9.77083e-06
9.44158e-06
9.17178e-06
8.94476e-06
8.73757e-06
8.49379e-06
0.00195842
0.00174365
0.00155894
0.00138019
0.00119247
0.0010007
0.000814437
0.000643532
0.00049508
0.000371797
0.00027306
0.000196842
0.000140503
0.000100751
7.37743e-05
5.58361e-05
4.39001e-05
3.58265e-05
3.02095e-05
2.60919e-05
2.33157e-05
2.13584e-05
1.96907e-05
1.82274e-05
1.69203e-05
1.57431e-05
1.46815e-05
1.37272e-05
1.28744e-05
1.21175e-05
1.14506e-05
1.0867e-05
1.03593e-05
9.91936e-06
9.53832e-06
9.20675e-06
8.91417e-06
8.64711e-06
8.38005e-06
8.03371e-06
0.00206286
0.001857
0.00166758
0.00147753
0.00127382
0.0010629
0.000855863
0.000664802
0.000499401
0.000363993
0.000257997
0.000178645
0.00012234
8.45652e-05
6.026e-05
4.48477e-05
3.49778e-05
2.85217e-05
2.41493e-05
2.10347e-05
1.89951e-05
1.75855e-05
1.64016e-05
1.53707e-05
1.44504e-05
1.36166e-05
1.28556e-05
1.21597e-05
1.15242e-05
1.09453e-05
1.04195e-05
9.94305e-06
9.51185e-06
9.12127e-06
8.76613e-06
8.4405e-06
8.13681e-06
7.84311e-06
7.53125e-06
7.10384e-06
0.00216037
0.00197611
0.00179112
0.00159424
0.00137639
0.00114587
0.000915467
0.000699908
0.000512698
0.000361276
0.000245708
0.000162219
0.000105828
7.02101e-05
4.86179e-05
3.55659e-05
2.74948e-05
2.23604e-05
1.89706e-05
1.66248e-05
1.51351e-05
1.41272e-05
1.32935e-05
1.25731e-05
1.19296e-05
1.13418e-05
1.07976e-05
1.029e-05
9.81482e-06
9.36948e-06
8.9519e-06
8.56012e-06
8.19207e-06
7.84533e-06
7.51701e-06
7.20328e-06
6.89833e-06
6.5911e-06
6.2519e-06
5.77327e-06
0.0022485
0.00209665
0.00192953
0.00173566
0.00150962
0.0012613
0.00100524
0.000759236
0.000542401
0.000368097
0.000238666
0.000148857
9.16187e-05
5.79475e-05
3.88354e-05
2.78236e-05
2.12319e-05
1.71396e-05
1.45055e-05
1.27366e-05
1.1649e-05
1.09296e-05
1.03441e-05
9.84184e-06
9.39236e-06
8.97756e-06
8.58685e-06
8.2142e-06
7.85618e-06
7.51086e-06
7.17705e-06
6.85386e-06
6.54041e-06
6.23563e-06
5.93796e-06
5.64491e-06
5.3519e-06
5.04897e-06
4.70741e-06
4.22145e-06
0.00232663
0.00221167
0.00207481
0.00189867
0.00167686
0.00141779
0.00113668
0.000854492
0.000597707
0.000390004
0.000240023
0.000140186
8.03965e-05
4.79363e-05
3.08122e-05
2.14375e-05
1.60171e-05
1.2736e-05
1.06789e-05
9.33934e-06
8.54239e-06
8.0274e-06
7.61517e-06
7.26404e-06
6.94893e-06
6.65483e-06
6.37291e-06
6.09813e-06
5.82775e-06
5.56038e-06
5.29539e-06
5.03251e-06
4.77156e-06
4.51222e-06
4.25379e-06
3.99472e-06
3.73163e-06
3.45635e-06
3.14426e-06
2.70463e-06
0.00239922
0.00232216
0.0022223
0.00207821
0.00187695
0.0016173
0.00131238
0.00098908
0.000682783
0.000430469
0.000252788
0.000138429
7.31835e-05
4.03736e-05
2.44374e-05
1.62587e-05
1.17396e-05
9.09439e-06
7.48613e-06
6.47178e-06
5.88732e-06
5.51819e-06
5.22752e-06
4.98179e-06
4.76089e-06
4.55282e-06
4.35053e-06
4.15003e-06
3.94924e-06
3.74721e-06
3.54369e-06
3.33874e-06
3.13258e-06
2.92536e-06
2.71694e-06
2.50655e-06
2.29206e-06
2.06774e-06
1.81541e-06
1.4685e-06
0.00249613
0.00245911
0.00240533
0.0023154
0.00216598
0.00192696
0.00158863
0.00119615
0.000810503
0.000493281
0.000277198
0.000143129
6.92522e-05
3.45051e-05
1.91642e-05
1.19561e-05
8.22444e-06
6.13688e-06
4.91104e-06
4.16134e-06
3.7411e-06
3.48104e-06
3.27946e-06
3.11058e-06
2.95911e-06
2.81594e-06
2.67579e-06
2.53571e-06
2.3942e-06
2.25069e-06
2.10513e-06
1.95779e-06
1.80906e-06
1.65934e-06
1.50889e-06
1.35756e-06
1.20439e-06
1.04618e-06
8.71913e-07
6.41512e-07
0.00254767
0.00253623
0.00251598
0.00247735
0.00240512
0.00225485
0.00194199
0.00145733
0.000948602
0.000530244
0.000275986
0.000130509
5.74035e-05
2.66696e-05
1.42263e-05
8.61975e-06
5.76319e-06
4.17673e-06
3.25195e-06
2.6917e-06
2.38123e-06
2.19119e-06
2.04541e-06
1.92429e-06
1.81622e-06
1.71432e-06
1.61459e-06
1.51483e-06
1.41398e-06
1.31166e-06
1.20791e-06
1.10304e-06
9.9745e-07
8.91576e-07
7.85755e-07
6.80103e-07
5.74237e-07
4.66525e-07
3.5099e-07
2.06998e-07
0.00252827
0.00246604
0.00241743
0.00239384
0.00239295
0.00227804
0.00195792
0.00145801
0.000926251
0.000500773
0.000244233
0.000107638
4.52292e-05
2.09421e-05
1.12111e-05
6.73877e-06
4.41201e-06
3.10886e-06
2.34847e-06
1.88914e-06
1.63602e-06
1.48241e-06
1.36593e-06
1.27049e-06
1.18654e-06
1.10844e-06
1.03292e-06
9.58172e-07
8.83315e-07
8.08047e-07
7.32425e-07
6.56723e-07
5.81332e-07
5.0669e-07
4.33222e-07
3.61267e-07
2.90962e-07
2.21937e-07
1.51826e-07
7.19634e-08
0.00245304
0.00237124
0.00234439
0.00229965
0.00230855
0.00221951
0.00186627
0.00134321
0.000814993
0.000415991
0.000186717
7.5961e-05
3.18655e-05
1.54659e-05
8.54934e-06
5.15218e-06
3.31277e-06
2.26398e-06
1.64866e-06
1.27749e-06
1.07436e-06
9.52555e-07
8.61777e-07
7.88997e-07
7.2649e-07
6.69679e-07
6.15902e-07
5.63682e-07
5.12282e-07
4.6143e-07
4.1115e-07
3.61646e-07
3.13229e-07
2.66267e-07
2.21137e-07
1.78164e-07
1.37454e-07
9.92044e-08
6.30372e-08
2.51384e-08
0.00254453
0.00253557
0.00254383
0.0024444
0.00232496
0.00212675
0.00167402
0.00113028
0.000645432
0.000287401
0.000116157
4.6283e-05
2.12305e-05
1.11911e-05
6.41727e-06
3.87886e-06
2.44791e-06
1.61795e-06
1.12887e-06
8.347e-07
6.75303e-07
5.81389e-07
5.13019e-07
4.59799e-07
4.15571e-07
3.76669e-07
3.40944e-07
3.0718e-07
2.74743e-07
2.43359e-07
2.12982e-07
1.83704e-07
1.55706e-07
1.29215e-07
1.04486e-07
8.17476e-08
6.11842e-08
4.24329e-08
2.61638e-08
1.82556e-08
0.00254401
0.00253754
0.00250557
0.00241853
0.00221403
0.00182138
0.00140896
0.000832547
0.00036231
0.000144689
5.80665e-05
2.70092e-05
1.42772e-05
8.09005e-06
4.76136e-06
2.87595e-06
1.78274e-06
1.14296e-06
7.66585e-07
5.42548e-07
4.22363e-07
3.5124e-07
3.00299e-07
2.61874e-07
2.31124e-07
2.05104e-07
1.82077e-07
1.61046e-07
1.41464e-07
1.23059e-07
1.05724e-07
8.94503e-08
7.42891e-08
6.03407e-08
4.77731e-08
3.68945e-08
2.8272e-08
2.2693e-08
1.97857e-08
1.87474e-08
0.00253524
0.00250393
0.00244869
0.00235553
0.00208832
0.00160408
0.000900864
0.000400766
0.000159273
6.89498e-05
3.44592e-05
1.8845e-05
1.07633e-05
6.28557e-06
3.71903e-06
2.22599e-06
1.3541e-06
8.46002e-07
5.5104e-07
3.79115e-07
2.91731e-07
2.41252e-07
2.04546e-07
1.75933e-07
1.52357e-07
1.32087e-07
1.1416e-07
9.8062e-08
8.35423e-08
7.05027e-08
5.89281e-08
4.88428e-08
4.02806e-08
3.32636e-08
2.77831e-08
2.37818e-08
2.11304e-08
1.96081e-08
1.8896e-08
1.86432e-08
0.00102012
0.00044523
0.000466661
0.000477243
0.000464817
0.000426758
0.00036205
0.000268113
0.000147408
5.0397e-05
9.15773e-06
8.53381e-07
7.77328e-08
1.24281e-08
2.72132e-09
9.61918e-10
1.05453e-09
2.01615e-09
6.12281e-09
2.63389e-08
0.00104946
0.00110431
0.00116324
0.00124073
0.00133857
0.00143519
0.00153636
0.00163949
0.00173995
0.00182921
0.00189092
0.00191409
0.00192524
0.00193241
0.00193606
0.00193801
0.00193892
0.00193928
0.00193875
0.00193742
0.00188036
0.00161891
0.00143093
0.00123345
0.00104051
0.000855737
0.000682153
0.000523908
0.000384963
0.000268178
0.000175067
0.000105568
5.77666e-05
2.79175e-05
1.14382e-05
3.41655e-06
1.02176e-07
9.62734e-09
3.78426e-09
2.77417e-09
0.000435554
0.000413741
0.000394595
0.000376769
0.000357416
0.000341488
0.00032725
0.000314265
0.000302596
0.000292799
0.000287531
0.000284085
0.000283499
0.000284176
0.000283879
0.000277121
0.000256775
0.000221627
0.000171536
0.000111225
5.18273e-05
4.3807e-05
3.65435e-05
2.85054e-05
2.25299e-05
1.7555e-05
1.3363e-05
9.87192e-06
7.00987e-06
4.72457e-06
2.97795e-06
1.72408e-06
8.9826e-07
4.14907e-07
1.70081e-07
7.01518e-08
7.28391e-09
7.93317e-10
2.3802e-10
7.18041e-11
0.000445884
0.000413757
0.000383859
0.000356784
0.00033158
0.000308255
0.000285927
0.000263837
0.000241499
0.000218695
0.000195695
0.00017272
0.000149979
0.000127921
0.000107889
9.01756e-05
7.40066e-05
5.91485e-05
4.43855e-05
2.98802e-05
1.6813e-05
1.16422e-05
8.5708e-06
6.17814e-06
4.50312e-06
3.27344e-06
2.3431e-06
1.63369e-06
1.09404e-06
6.91851e-07
4.05553e-07
2.15314e-07
9.99843e-08
3.9814e-08
1.3449e-08
4.42045e-09
6.53952e-10
7.17108e-11
1.6179e-11
2.01595e-12
0.000456427
0.000429718
0.000401462
0.000373139
0.000345618
0.000319282
0.000293691
0.000268175
0.000242219
0.000215613
0.000188568
0.000161586
0.000135344
0.000110553
8.8102e-05
6.85591e-05
5.20395e-05
3.84592e-05
2.74571e-05
1.8282e-05
1.0828e-05
6.63892e-06
4.23483e-06
2.72164e-06
1.78302e-06
1.18392e-06
7.87749e-07
5.17895e-07
3.29831e-07
1.98558e-07
1.10037e-07
5.43576e-08
2.27274e-08
7.84713e-09
2.17739e-09
5.42605e-10
7.42224e-11
7.29513e-12
1.21817e-12
6.15614e-14
0.000447339
0.000425921
0.000402832
0.000378173
0.000352563
0.000326496
0.000299965
0.000272663
0.000244318
0.000214941
0.000185062
0.000155631
0.000127731
0.000102208
7.9695e-05
6.05207e-05
4.46895e-05
3.19786e-05
2.20411e-05
1.43511e-05
8.60885e-06
4.95843e-06
2.82961e-06
1.61669e-06
9.36813e-07
5.54306e-07
3.34691e-07
2.04279e-07
1.23299e-07
7.12311e-08
3.79319e-08
1.78092e-08
6.8861e-09
2.08903e-09
4.76534e-10
9.02062e-11
1.0204e-11
8.40663e-13
1.02111e-13
2.04579e-15
0.000411246
0.000394089
0.000376209
0.000356682
0.000335106
0.000311384
0.000285479
0.000257372
0.000227216
0.000195538
0.000163672
0.000133389
0.00010621
8.2782e-05
6.32186e-05
4.72909e-05
3.45579e-05
2.45131e-05
1.67014e-05
1.07884e-05
6.46246e-06
3.63219e-06
1.96495e-06
1.04508e-06
5.55765e-07
2.99617e-07
1.65344e-07
9.34916e-08
5.33136e-08
2.96649e-08
1.53889e-08
7.02182e-09
2.59711e-09
7.23397e-10
1.40854e-10
1.99368e-11
1.75766e-12
1.13701e-13
9.6246e-15
7.71516e-17
0.000343591
0.000327851
0.00031381
0.000299068
0.000281816
0.000260968
0.00023614
0.000207594
0.000176234
0.000143465
0.000112291
8.56482e-05
6.4437e-05
4.8242e-05
3.5973e-05
2.67165e-05
1.9608e-05
1.40153e-05
9.57396e-06
6.18555e-06
3.71396e-06
2.08196e-06
1.11296e-06
5.79898e-07
2.99567e-07
1.55635e-07
8.23424e-08
4.4648e-08
2.46033e-08
1.35358e-08
7.05696e-09
3.23241e-09
1.18862e-09
3.21094e-10
5.7972e-11
6.69638e-12
4.51487e-13
2.13485e-14
1.10602e-15
5.00129e-18
0.00024264
0.000226552
0.000215841
0.000205662
0.000192582
0.000174727
0.000151748
0.00012476
9.59394e-05
6.93953e-05
4.82108e-05
3.25425e-05
2.16838e-05
1.47558e-05
1.07236e-05
8.1807e-06
6.32637e-06
4.74676e-06
3.32812e-06
2.15844e-06
1.33235e-06
7.79689e-07
4.37486e-07
2.38667e-07
1.28096e-07
6.84282e-08
3.68493e-08
2.01722e-08
1.13847e-08
6.45893e-09
3.47546e-09
1.64e-09
6.1919e-10
1.70494e-10
3.10655e-11
3.44755e-12
2.08526e-13
7.73004e-15
2.2319e-16
1.46214e-18
0.000121512
0.000111338
0.000107407
0.000103174
9.51271e-05
8.21784e-05
6.51943e-05
4.66882e-05
3.03249e-05