/*--------------------------------*- C++ -*----------------------------------*\
| =========                 |                                                 |
| \\      /  F ield         | OpenFOAM: The Open Source CFD Toolbox           |
|  \\    /   O peration     | Version:  2312                                  |
|   \\  /    A nd           | Website:  www.openfoam.com                      |
|    \\/     M anipulation  |                                                 |
\*---------------------------------------------------------------------------*/
FoamFile
{
    version     2.0;
    format      ascii;
    arch        "LSB;label=32;scalar=64";
    class       volScalarField;
    location    "13122.1";
    object      p_rgh;
}
// * * * * * * * * * * * * * * * * * * * * * * * * * * * * * * * * * * * * * //

dimensions      [1 -1 -2 0 0 0 0];

internalField   nonuniform List<scalar> 
3780
(
8.84767
8.85873
8.86549
8.85937
8.84259
8.82024
8.79631
8.77385
8.75497
8.73958
8.72333
8.70714
8.69778
8.69751
8.70504
8.71677
8.73047
8.74574
8.75999
8.77324
8.78216
8.78534
8.78626
8.78565
8.78464
8.78442
8.78656
8.79266
8.80343
8.81706
8.8316
8.8494
8.87056
8.89432
8.91956
8.94604
8.97103
8.98985
8.99946
9.00391
8.62586
8.62864
8.6326
8.63379
8.63228
8.62933
8.62607
8.62349
8.62218
8.62211
8.62394
8.62823
8.6365
8.65016
8.66919
8.69098
8.71251
8.73277
8.74921
8.76184
8.76806
8.76782
8.76393
8.75758
8.75038
8.74317
8.73746
8.73412
8.73337
8.73564
8.74175
8.75184
8.76572
8.7832
8.804
8.83106
8.85173
8.86903
8.87351
8.86653
8.49696
8.50034
8.50931
8.51479
8.51604
8.51511
8.51369
8.51299
8.51375
8.51614
8.52048
8.52751
8.538
8.55378
8.57679
8.60562
8.63434
8.66084
8.68145
8.69435
8.69718
8.69233
8.68256
8.66961
8.65496
8.64025
8.62696
8.61606
8.60873
8.60631
8.60976
8.61944
8.63603
8.66052
8.69439
8.73648
8.77789
8.82116
8.84902
8.85394
8.33286
8.32766
8.33156
8.33379
8.33298
8.33097
8.32929
8.32895
8.33066
8.33466
8.3411
8.35047
8.36358
8.38219
8.40929
8.44614
8.48853
8.52798
8.55946
8.57852
8.58115
8.5732
8.55762
8.53684
8.51328
8.48923
8.46674
8.44769
8.4339
8.42708
8.42808
8.43798
8.45829
8.49108
8.53911
8.60263
8.676
8.75296
8.80513
8.81239
8.14487
8.12673
8.12308
8.11971
8.11381
8.10691
8.10049
8.09565
8.09336
8.09428
8.09848
8.10663
8.12015
8.14116
8.17304
8.21897
8.2772
8.33958
8.39306
8.42797
8.43654
8.42896
8.40985
8.38287
8.35167
8.31959
8.28957
8.26413
8.24546
8.23545
8.23539
8.24712
8.27296
8.31598
8.3801
8.46825
8.57594
8.69605
8.77931
8.79586
7.92921
7.89039
7.87278
7.85819
7.84212
7.82568
7.81034
7.79734
7.78796
7.78346
7.78446
7.79139
7.80637
7.83205
7.87229
7.93124
8.00965
8.1001
8.18718
8.25102
8.27378
8.27195
8.25328
8.22326
8.18702
8.14901
8.11292
8.08185
8.05837
8.04473
8.04301
8.05583
8.08655
8.13948
8.22018
8.33421
8.47887
8.64982
8.77183
8.80202
7.69534
7.62673
7.58822
7.55663
7.52537
7.49496
7.46685
7.44243
7.42329
7.41127
7.40809
7.41473
7.43298
7.46606
7.51843
7.59503
7.6982
7.82218
7.94895
8.05222
8.0984
8.10831
8.09475
8.06534
8.02692
7.98502
7.94399
7.90737
7.8782
7.85941
7.85398
7.86549
7.89852
7.95906
8.05497
8.19488
8.38134
8.61761
8.78497
8.83182
7.45828
7.3493
7.28199
7.22691
7.17491
7.12584
7.08112
7.04239
7.01158
6.99099
6.98318
6.99054
7.01459
7.05849
7.12709
7.22594
7.3584
7.5198
7.69084
7.83808
7.91382
7.9404
7.93598
7.91026
7.8718
7.82729
7.78173
7.73902
7.70273
7.67673
7.66483
7.67159
7.70287
7.76663
7.87381
8.03793
8.27213
8.59074
8.81867
8.88797
7.23622
7.07506
6.97063
6.88533
6.80685
6.73433
6.6692
6.61344
6.56939
6.53985
6.52807
6.53756
6.56987
6.62818
6.71736
6.84304
7.00882
7.21027
7.42661
7.61892
7.72482
7.77009
7.77671
7.75606
7.71844
7.67152
7.62098
7.57107
7.52641
7.49169
7.47117
7.47001
7.49509
7.55636
7.66855
7.85281
8.13726
8.55464
8.87013
8.97177
7.05098
6.82372
6.67215
6.54831
6.43639
6.33482
6.24524
6.17007
6.11217
6.0747
6.06108
6.07476
6.1187
6.19571
6.31019
6.46725
6.66967
6.91181
7.17056
7.40227
7.53392
7.59518
7.61138
7.59519
7.55782
7.50787
7.45178
7.39445
7.34192
7.29891
7.26958
7.25902
7.27451
7.32747
7.43636
7.63153
7.96017
8.48766
8.94066
9.091
6.93752
6.62796
6.41752
6.24456
6.08921
5.94928
5.82684
5.72514
5.64802
5.59962
5.58421
5.60604
5.66863
5.77379
5.92364
6.12041
6.36381
6.64504
6.93789
7.19663
7.34507
7.41664
7.43914
7.42561
7.38785
7.335
7.27372
7.20945
7.15011
7.09945
7.06082
7.03883
7.04096
7.07994
7.17788
7.37386
7.73823
8.36487
9.04561
9.24882
6.9079
6.50272
6.22993
6.0072
5.80867
5.63126
5.47764
5.35212
5.25973
5.20567
5.19447
5.2297
5.31355
5.44675
5.62646
5.85101
6.11662
6.41085
6.705
6.95422
7.08965
7.15721
7.18161
7.1732
7.14185
7.09513
7.03921
6.98159
6.92479
6.87075
6.82294
6.78666
6.77099
6.79141
6.87373
7.06037
7.42609
8.09146
9.17669
9.35874
6.88407
6.3681
6.01094
5.71028
5.44077
5.20218
5.00002
4.8407
4.73064
4.67534
4.67748
4.73715
4.85496
5.02348
5.23872
5.5001
5.80237
6.12941
6.4502
6.72454
6.89251
6.98899
7.03607
7.04502
7.02547
6.98529
6.9306
6.86517
6.79155
6.71423
6.63814
6.56917
6.52123
6.51753
6.59214
6.78525
7.13762
7.72248
8.40524
9.05932
7.01309
6.41783
6.00779
5.66563
5.35989
5.0879
4.85396
4.66392
4.5245
4.44294
4.42362
4.46813
4.5755
4.74091
4.95338
5.20524
5.49
5.79589
6.10078
6.37327
6.55225
6.66919
6.74676
6.7899
6.80486
6.79766
6.77365
6.73737
6.69131
6.63464
6.56559
6.48229
6.3814
6.26261
6.13399
5.99874
5.86108
5.73132
5.61227
5.5027
7.21904
6.53667
6.06252
5.66548
5.30894
4.98863
4.70789
4.47303
4.29173
4.17272
4.12241
4.14573
4.24256
4.41021
4.63103
4.88874
5.1727
5.47149
5.76859
6.04116
6.23108
6.36353
6.46224
6.52933
6.56875
6.58497
6.5822
6.56407
6.53354
6.49304
6.44424
6.38791
6.32359
6.24953
6.16455
6.06874
5.96362
5.85375
5.7443
5.63811
7.4969
6.72487
6.18473
5.73075
5.3205
4.94788
4.61585
4.33089
4.10122
3.93545
3.84285
3.83126
3.90324
4.05587
4.27866
4.54317
4.83233
5.13258
5.42869
5.70202
5.8969
6.03664
6.14641
6.22734
6.2824
6.31533
6.32989
6.32948
6.31707
6.29513
6.26565
6.23012
6.18943
6.14383
6.09291
6.03588
5.97206
5.90159
5.8253
5.74371
7.83925
6.97436
6.36561
5.85195
5.38491
4.95633
4.56821
4.22657
3.9398
3.71792
3.57169
3.5108
3.54312
3.66891
3.88074
4.14984
4.44598
4.75123
5.04951
5.32407
5.52127
5.66436
5.77959
5.86773
5.93119
5.97309
5.99664
6.00487
6.00054
5.98614
5.96384
5.93555
5.90286
5.86698
5.82867
5.78817
5.74523
5.6993
5.64963
5.59505
8.24508
7.28444
6.60504
6.02982
5.50395
5.01702
4.56977
4.16734
3.81759
3.53062
3.31825
3.19292
3.16573
3.24398
3.42367
3.68747
3.9887
4.29962
4.60156
4.87788
5.07651
5.2209
5.3381
5.42903
5.49591
5.54156
5.56882
5.58042
5.57886
5.56646
5.54529
5.51726
5.48408
5.44726
5.40811
5.36763
5.32648
5.28483
5.24237
5.19801
8.71705
7.65763
6.90574
6.26741
5.68129
5.13457
4.62655
4.1611
3.74492
3.38725
3.09979
2.89628
2.79097
2.79595
2.91749
3.14575
3.4419
3.75386
4.05639
4.33154
4.52851
4.6708
4.78563
4.87419
4.93869
4.98171
5.00578
5.01335
5.00667
4.98788
4.95892
4.92165
4.8778
4.82905
4.77696
4.72293
4.66816
4.61362
4.55973
4.50621
9.26093
8.09961
7.27344
6.57072
5.92342
5.31636
4.74731
4.21863
3.73539
3.30514
2.93819
2.64775
2.4494
2.35903
2.38894
2.54239
2.80241
3.10074
3.39291
3.65769
3.8455
3.97913
4.08479
4.16383
4.21834
4.25057
4.26273
4.25688
4.23498
4.19889
4.15035
4.09104
4.02288
3.94777
3.86762
3.78435
3.69972
3.61516
3.5324
3.45194
9.88448
8.61795
7.71568
6.94733
6.23819
5.57078
4.94144
4.35098
3.80267
3.30188
2.8565
2.47745
2.17902
1.97824
1.89181
1.92959
2.0882
2.34498
2.60913
2.84704
3.01197
3.12527
3.21028
3.26835
3.30119
3.31051
3.29801
3.26528
3.21405
3.14611
3.06317
2.96644
2.85671
2.73711
2.61142
2.48344
2.35672
2.2343
2.11772
2.00741
10.5961
9.22077
8.24037
7.40503
6.63331
5.90566
5.21718
4.56735
3.95771
3.3914
2.87355
2.41181
2.017
1.70364
1.48932
1.39022
1.41102
1.53888
1.73767
1.92944
2.05529
2.13323
2.18203
2.20382
2.20072
2.17314
2.12275
2.05142
1.95996
1.85146
1.73114
1.60573
1.48139
1.36001
1.24294
1.13127
1.02585
0.927284
0.835608
0.748988
11.4032
9.9151
8.85415
7.95009
7.11468
6.32656
5.57991
4.87321
4.20655
3.58116
2.99968
2.46654
1.98853
1.57541
1.24062
1.00068
0.869388
0.843557
0.897084
0.991194
1.05919
1.09344
1.10307
1.08951
1.05164
0.990962
0.915577
0.833424
0.751971
0.672502
0.595505
0.522036
0.453586
0.391186
0.33517
0.28552
0.241969
0.204077
0.171323
0.142707
12.311
10.7055
9.56095
8.58577
7.68476
6.83506
6.03032
5.26839
4.54829
3.8698
3.23364
2.64178
2.09787
1.60761
1.17924
0.82439
0.558257
0.393747
0.321071
0.302422
0.299936
0.296023
0.285924
0.267696
0.241155
0.211061
0.180438
0.151155
0.124602
0.101353
0.0813049
0.0642155
0.0498335
0.0378812
0.0280543
0.0200454
0.0135633
0.00834404
0.0041856
0.000965975
13.3219
11.5935
10.3615
9.31187
8.34215
7.42831
6.56396
5.74669
4.97487
4.24717
3.56287
2.92225
2.32699
1.78054
1.28837
0.858587
0.503371
0.241847
0.0933999
0.0360114
0.0181468
0.0107499
0.00569782
0.00130886
-0.00281719
-0.00646353
-0.00947149
-0.0118343
-0.0136122
-0.0148922
-0.0157691
-0.0163297
-0.0166457
-0.0167747
-0.0167618
-0.0166444
-0.0164579
-0.0162364
-0.0159774
-0.0155717
14.4374
12.5797
11.2552
10.1264
9.08331
8.10096
7.17337
6.29837
5.474
4.69809
3.96866
3.28449
2.64573
2.05438
1.51465
1.03346
0.621544
0.297023
0.0900516
0.00519059
-0.0182444
-0.0262328
-0.0298475
-0.0314926
-0.032093
-0.0320647
-0.0316236
-0.0309045
-0.0300094
-0.0290138
-0.0279681
-0.0269061
-0.0258511
-0.0248199
-0.0238232
-0.0228694
-0.0219724
-0.0211511
-0.0203771
-0.0194676
15.6609
13.6659
12.2425
11.0287
9.90603
8.84892
7.85238
6.91503
6.035
5.20954
4.43545
3.70991
3.0312
2.3995
1.81745
1.29075
0.828936
0.447915
0.176064
0.0360325
-0.00942829
-0.0259644
-0.0338616
-0.0378005
-0.0396303
-0.040221
-0.0400327
-0.0393262
-0.0382555
-0.0369348
-0.0354756
-0.0339705
-0.0324685
-0.0309971
-0.0295737
-0.0282129
-0.0269371
-0.0257736
-0.024676
-0.0233727
16.999
14.8573
13.3274
12.0213
10.811
9.67079
8.59724
7.5905
6.64938
5.77092
4.95096
4.18498
3.46906
2.80084
2.18049
1.61149
1.10145
0.663718
0.321914
0.105524
0.0178226
-0.0168636
-0.0340773
-0.0431731
-0.0479697
-0.0502711
-0.051026
-0.0507768
-0.0498508
-0.0484458
-0.0466764
-0.0446457
-0.0424954
-0.0403417
-0.0382377
-0.0362135
-0.03431
-0.0325746
-0.0309331
-0.0289699
18.4638
16.1644
14.5187
13.1113
11.8034
10.5692
9.40764
8.3214
7.31074
6.37315
5.50397
4.69729
3.9469
3.24748
2.59573
1.99164
1.43963
0.949825
0.540524
0.236773
0.0805982
0.00970485
-0.0275182
-0.0480969
-0.0597689
-0.0662711
-0.0695766
-0.0708039
-0.0706257
-0.0694678
-0.0676046
-0.0651975
-0.0623349
-0.0591364
-0.0557943
-0.0524724
-0.0492801
-0.0463134
-0.0434571
-0.0400363
20.0701
17.6017
15.8301
14.3114
12.8941
11.5521
10.2881
9.10818
8.01515
7.00786
6.0819
5.23064
4.44614
3.7202
3.04566
2.41783
1.83611
1.30559
0.839007
0.453653
0.210837
0.0771725
-0.00140748
-0.0474389
-0.0749936
-0.0916069
-0.101402
-0.106738
-0.109018
-0.109111
-0.107584
-0.104826
-0.10111
-0.0965984
-0.0914021
-0.0857507
-0.0800112
-0.0744405
-0.0688302
-0.0621806
21.8194
19.1756
17.2721
15.6353
14.0982
12.6348
11.2521
9.96147
8.76943
7.67728
6.68186
5.7768
4.95332
4.2012
3.5099
2.86994
2.27456
1.72145
1.21494
0.76739
0.447402
0.237297
0.0892481
-0.00862569
-0.0719796
-0.113247
-0.140326
-0.158069
-0.169522
-0.176625
-0.180591
-0.182106
-0.181455
-0.178683
-0.173771
-0.166758
-0.157819
-0.147024
-0.134273
-0.119461
23.7919
20.9626
18.9139
17.1421
15.4629
13.8499
12.3161
10.8804
9.55542
8.34676
7.25394
6.27207
5.39266
4.60434
3.89384
3.24717
2.65098
2.09446
1.57218
1.09067
0.721946
0.45652
0.242503
0.077335
-0.0440444
-0.129908
-0.189639
-0.23113
-0.259933
-0.279663
-0.292666
-0.300526
-0.304387
-0.305104
-0.303314
-0.299676
-0.295558
-0.294146
-0.295775
-0.29083
26.3848
23.2959
21.0349
19.0734
17.2012
15.389
13.6556
12.0279
10.5252
9.1576
7.92698
6.83
5.85899
5.00259
4.24651
3.57437
2.96872
2.4122
1.88888
1.39226
0.997216
0.697027
0.437296
0.217992
0.0381935
-0.10483
-0.216306
-0.303131
-0.372025
-0.428281
-0.475508
-0.515875
-0.550445
-0.57954
-0.603139
-0.621218
-0.634156
-0.643329
-0.650609
-0.653049
28.4765
25.0724
22.547
20.334
18.2034
16.1322
14.1519
12.3023
10.6097
9.08603
7.73362
6.54822
5.52019
4.63541
3.87622
3.22255
2.65325
2.14742
1.68627
1.25649
0.912239
0.649438
0.419064
0.220033
0.0515944
-0.0873406
-0.198893
-0.286539
-0.35467
-0.407637
-0.448939
-0.480903
-0.504766
-0.521004
-0.529837
-0.531768
-0.527805
-0.519357
-0.507849
-0.493558
30.7111
26.9989
24.2165
21.7506
19.3525
17.0091
14.7684
12.6825
10.7857
9.0934
7.60831
6.32492
5.23137
4.31056
3.54126
2.89952
2.36034
1.89912
1.4933
1.12477
0.83237
0.607712
0.408127
0.232605
0.0806314
-0.0483131
-0.15518
-0.241682
-0.310357
-0.36423
-0.406207
-0.438526
-0.462453
-0.478609
-0.487607
-0.490339
-0.487971
-0.481622
-0.472307
-0.45953
33.1346
29.1045
26.0473
23.3065
20.6121
17.9625
15.4256
13.0713
10.9446
9.06468
7.43382
6.0443
4.88114
3.92321
3.14452
2.51596
2.00764
1.59109
1.24091
0.934856
0.696657
0.514908
0.353069
0.20937
0.0830779
-0.0261597
-0.11877
-0.195579
-0.257979
-0.307832
-0.347095
-0.377157
-0.399126
-0.413826
-0.422081
-0.424942
-0.423627
-0.419249
-0.41261
-0.403833
35.7751
31.4227
28.0767
25.0398
22.0187
19.0275
16.159
13.5055
11.1259
9.04325
7.25838
5.76003
4.52868
3.53773
2.75468
2.14341
1.66759
1.29382
0.993425
0.741587
0.551151
0.407637
0.28025
0.166717
0.0660333
-0.0222138
-0.0983075
-0.162714
-0.216244
-0.260026
-0.295278
-0.322972
-0.343673
-0.358284
-0.367642
-0.372641
-0.374185
-0.372996
-0.369562
-0.363993
38.6642
33.9843
30.3281
26.9667
23.5805
20.2043
16.961
13.9712
11.3112
9.00897
7.06269
5.45553
4.16146
3.14622
2.36835
1.78236
1.34372
1.01339
0.759884
0.555963
0.40657
0.295888
0.198439
0.111647
0.0342806
-0.0342075
-0.094109
-0.145739
-0.189573
-0.226248
-0.256468
-0.280858
-0.299883
-0.314061
-0.324063
-0.33063
-0.334455
-0.336104
-0.336056
-0.334828
41.8272
36.8272
32.8377
29.1191
25.3246
21.5139
17.8457
14.475
11.5014
8.96007
6.84483
5.13094
3.78313
2.75637
1.99674
1.44628
1.05054
0.764449
0.553846
0.39079
0.275171
0.191146
0.118
0.0531113
-0.00486681
-0.0565967
-0.102423
-0.142601
-0.177416
-0.207214
-0.232377
-0.253283
-0.270287
-0.283761
-0.294146
-0.30191
-0.307554
-0.311533
-0.314344
-0.316944
45.2634
39.9897
35.6521
31.5445
27.2962
22.9967
18.8446
15.037
11.7061
8.8985
6.6031
4.78402
3.39308
2.36986
1.64295
1.13819
0.790001
0.547854
0.375882
0.247274
0.158933
0.09603
0.0419927
-0.0056583
-0.0482694
-0.0865493
-0.120873
-0.151466
-0.178513
-0.202202
-0.222737
-0.240336
-0.255229
-0.267673
-0.277958
-0.28639
-0.293304
-0.299067
-0.304202
-0.310149
48.9041
43.4904
38.828
34.3138
29.5731
24.7299
20.0255
15.7085
11.958
8.84291
6.34751
4.42096
2.99686
1.99238
1.31153
0.860013
0.561068
0.360467
0.222419
0.12237
0.0557187
0.0092361
-0.0301295
-0.0646041
-0.0954403
-0.123329
-0.148644
-0.171594
-0.192312
-0.210909
-0.227494
-0.242187
-0.255124
-0.266461
-0.276377
-0.285073
-0.292788
-0.299835
-0.306808
-0.315654
52.5939
47.2982
42.4193
37.5225
32.2742
26.8399
21.5061
16.5837
12.3222
8.83302
6.10147
4.05645
2.60549
1.63256
1.00744
0.612267
0.360608
0.19742
0.0881841
0.0113061
-0.0383754
-0.0722837
-0.100571
-0.125165
-0.147179
-0.167244
-0.185714
-0.20278
-0.218549
-0.233093
-0.246472
-0.258745
-0.269984
-0.280274
-0.289719
-0.298449
-0.306645
-0.314604
-0.322997
-0.334222
56.1762
51.3422
46.4841
41.3136
35.5929
29.5399
23.4909
17.832
12.9175
8.94242
5.90836
3.71652
2.23634
1.30205
0.736649
0.396116
0.18685
0.0549834
-0.0309787
-0.0896823
-0.126404
-0.150879
-0.170962
-0.188295
-0.20384
-0.218154
-0.231555
-0.244216
-0.256229
-0.267644
-0.278491
-0.288795
-0.298588
-0.307908
-0.316812
-0.325385
-0.333777
-0.342274
-0.351603
-0.364444
59.6245
55.561
51.0819
45.8888
39.8362
33.1893
26.3377
19.758
13.9601
9.30021
5.84031
3.43989
1.91048
1.01155
0.502405
0.210308
0.0366929
-0.0699623
-0.13764
-0.182403
-0.209429
-0.226971
-0.241103
-0.253211
-0.264109
-0.274279
-0.283997
-0.293413
-0.302606
-0.311609
-0.320436
-0.329094
-0.337586
-0.345926
-0.354141
-0.362289
-0.370492
-0.379022
-0.388596
-0.401888
62.879
59.7381
55.9874
51.1685
45.1094
38.041
30.3802
22.6973
15.7115
10.0638
5.9868
3.27357
1.64931
0.768403
0.304923
0.0524896
-0.0922814
-0.178867
-0.232255
-0.266394
-0.286251
-0.29877
-0.308656
-0.317064
-0.324672
-0.331882
-0.338924
-0.345926
-0.352949
-0.360016
-0.367129
-0.374282
-0.381465
-0.388677
-0.395925
-0.403246
-0.410735
-0.418623
-0.427537
-0.439797
65.5184
63.3974
60.6391
56.6683
51.128
43.9849
35.5975
26.7035
18.2745
11.3282
6.43464
3.28358
1.4855
0.582001
0.144412
-0.0788247
-0.200989
-0.271484
-0.313487
-0.339378
-0.353858
-0.362701
-0.369532
-0.375294
-0.380536
-0.385581
-0.390613
-0.395731
-0.400981
-0.406376
-0.41191
-0.417569
-0.423335
-0.429196
-0.435147
-0.441206
-0.447436
-0.454006
-0.461386
-0.471276
68.0192
67.0873
65.7162
63.3703
59.3883
52.9097
43.6345
32.7992
22.098
13.2625
7.22979
3.48046
1.41231
0.439526
0.010929
-0.189241
-0.291741
-0.348123
-0.380414
-0.399578
-0.409895
-0.415983
-0.420567
-0.424389
-0.427871
-0.431261
-0.434696
-0.43825
-0.441953
-0.445808
-0.449805
-0.453925
-0.458149
-0.462456
-0.466832
-0.471278
-0.475826
-0.480578
-0.485819
-0.492558
70.5631
70.3608
69.9359
68.9973
67.1241
63.0496
54.3513
40.7361
26.3776
14.5306
7.31623
3.18492
1.1078
0.234018
-0.119464
-0.27781
-0.357414
-0.400606
-0.424871
-0.438923
-0.446246
-0.450404
-0.453452
-0.455964
-0.458263
-0.460535
-0.462882
-0.465355
-0.467969
-0.470724
-0.473603
-0.476587
-0.479652
-0.482778
-0.485946
-0.489149
-0.492399
-0.495754
-0.499363
-0.503708
71.0948
69.3575
68.0325
67.4375
67.5058
64.3303
55.2916
41.0938
25.9458
13.7973
6.46163
2.55441
0.769343
0.0746438
-0.203157
-0.329811
-0.394613
-0.429863
-0.449488
-0.460678
-0.466363
-0.469481
-0.471699
-0.473493
-0.475124
-0.476744
-0.478433
-0.480229
-0.482143
-0.484169
-0.486292
-0.488489
-0.490738
-0.493017
-0.495303
-0.497581
-0.499847
-0.502117
-0.504436
-0.506956
69.7377
67.4095
66.6794
65.4452
65.7596
63.2583
53.1486
38.1342
22.9454
11.4562
4.85024
1.65951
0.38991
-0.0815002
-0.279184
-0.375025
-0.425744
-0.453576
-0.468942
-0.47755
-0.481793
-0.484004
-0.485499
-0.486665
-0.487708
-0.488747
-0.489843
-0.491024
-0.492296
-0.493652
-0.495075
-0.496547
-0.498045
-0.499549
-0.501037
-0.502493
-0.50391
-0.505284
-0.506599
-0.507889
73.0679
72.8314
73.1095
70.2732
66.8553
61.1428
48.0351
32.2689
18.1969
7.80565
2.83456
0.807785
0.0826794
-0.206136
-0.341757
-0.412397
-0.450941
-0.472149
-0.483656
-0.489914
-0.492837
-0.494216
-0.495055
-0.495659
-0.496186
-0.496725
-0.497321
-0.497992
-0.498741
-0.499558
-0.500431
-0.501341
-0.502271
-0.503202
-0.504116
-0.504998
-0.505838
-0.506643
-0.507366
-0.507771
73.6209
73.4596
72.5762
70.0951
64.177
52.7355
40.6731
23.8057
10.0482
3.6809
1.14916
0.244652
-0.12297
-0.299054
-0.391801
-0.442729
-0.47089
-0.48616
-0.494117
-0.498179
-0.499892
-0.500572
-0.500887
-0.501056
-0.501196
-0.501371
-0.501612
-0.50193
-0.502323
-0.502782
-0.503294
-0.503845
-0.504419
-0.505
-0.505572
-0.506116
-0.506611
-0.507027
-0.507344
-0.507529
73.7056
72.8175
71.2547
68.5925
60.808
46.6178
25.9409
11.2127
4.10125
1.44872
0.444514
-0.00383735
-0.232051
-0.355821
-0.424716
-0.463133
-0.48415
-0.495146
-0.500468
-0.502861
-0.503544
-0.503586
-0.503464
-0.503336
-0.503265
-0.503275
-0.503374
-0.503557
-0.503813
-0.504129
-0.504486
-0.504869
-0.505264
-0.505654
-0.50603
-0.506383
-0.50671
-0.507008
-0.507253
-0.507404
9.55508
5.39427
5.54652
5.66621
5.54091
5.15436
4.4555
3.37973
1.91533
0.673747
0.117863
-0.00143807
-0.0148629
-0.0181483
-0.0214468
-0.0260452
-0.0349364
-0.0526415
-0.100773
-0.263243
9.77761
10.1712
10.5977
11.1732
11.924
12.6933
13.5272
14.4073
15.2972
16.1257
16.7525
17.078
17.3184
17.5402
17.7457
17.9466
18.1441
18.3424
18.5386
18.7358
18.4018
16.0796
14.4266
12.6232
10.8116
9.02947
7.31069
5.70383
4.25838
3.01469
2.00034
1.2263
0.682304
0.33534
0.13973
0.0424932
0.00134501
0.000180385
0.000162792
0.000174582
5.20861
4.94798
4.70848
4.47075
4.21277
3.98303
3.7718
3.57632
3.3974
3.2402
3.12902
3.0434
2.99258
2.96218
2.93176
2.84822
2.63846
2.28478
1.78001
1.16528
0.546827
0.464161
0.392873
0.309249
0.245865
0.192197
0.1464
0.107978
0.0763683
0.0511469
0.0319677
0.0183023
0.00937884
0.00423187
0.0016802
0.000755747
9.6113e-05
6.23431e-05
0.000114696
0.000137111
5.33134
4.98556
4.65458
4.33534
4.0226
3.72307
3.43388
3.14994
2.8672
2.58376
2.30231
2.0252
1.75389
1.4931
1.256
1.04464
0.8514
0.673884
0.50024
0.333027
0.184238
0.126737
0.0945874
0.0680005
0.0484982
0.033685
0.0223679
0.0139162
0.0078225
0.00370723
0.00122987
-2.13173e-05
-0.000482473
-0.000483538
-0.000317997
-9.52401e-05
5.06485e-06
4.96266e-05
0.000109146
0.000134341
5.4405
5.14482
4.83057
4.50362
4.17254
3.84643
3.52638
3.2087
2.88942
2.56686
2.24343
1.92396
1.61479
1.32338
1.05882
0.826469
0.627428
0.461083
0.324023
0.209806
0.118853
0.0706437
0.0450332
0.0280724
0.0167618
0.00904373
0.00381549
0.000446852
-0.00151766
-0.00240014
-0.00247881
-0.00207329
-0.00148894
-0.000911238
-0.000470532
-0.000156112
-7.10458e-06
4.60712e-05
0.00010575
0.000132298
5.35519
5.11369
4.85046
4.56293
4.25519
3.93498
3.6068
3.2708
2.92584
2.57269
2.21721
1.86939
1.54028
1.23883
0.971648
0.741804
0.549165
0.391471
0.265749
0.167393
0.0946337
0.0513588
0.0283295
0.0147892
0.00649872
0.00135299
-0.00175615
-0.00343527
-0.0040858
-0.00397896
-0.00335648
-0.00249947
-0.00165726
-0.000960005
-0.000476071
-0.000158611
-1.20702e-05
4.35545e-05
0.000102255
0.000130291
4.9843
4.78856
4.58003
4.34793
4.08552
3.79233
3.47102
3.12451
2.75652
2.37379
1.99143
1.62923
1.30386
1.02239
0.785881
0.591269
0.433173
0.305831
0.204771
0.127284
0.0709014
0.036295
0.0178599
0.00758014
0.00153483
-0.00205516
-0.00408223
-0.0050023
-0.00510188
-0.00457782
-0.00365375
-0.00260796
-0.00166973
-0.000941203
-0.000456315
-0.000151741
-1.46563e-05
4.15949e-05
9.8787e-05
0.000128468
4.24408
4.0624
3.89647
3.71802
3.50469
3.24366
2.93229
2.57612
2.18764
1.78436
1.4017
1.07415
0.812543
0.612007
0.459177
0.342685
0.251625
0.178226
0.118576
0.0724008
0.0389122
0.018206
0.00733209
0.00140337
-0.00215878
-0.0043439
-0.00556912
-0.00601127
-0.00577441
-0.00497854
-0.00385054
-0.0026718
-0.0016636
-0.00091416
-0.000432693
-0.000142166
-1.5184e-05
4.04036e-05
9.56222e-05
0.000126991
3.07244
2.88161
2.75368
2.62833
2.46308
2.23497
1.94082
1.59612
1.22914
0.89132
0.621225
0.420852
0.281315
0.191776
0.139505
0.106318
0.0815529
0.0596583
0.039317
0.0222115
0.0100049
0.00252215
-0.00127955
-0.00342452
-0.00495163
-0.00606527
-0.00673258
-0.00686285
-0.00639406
-0.00540091
-0.00409619
-0.00277606
-0.00167936
-0.000894199
-0.000409672
-0.000131177
-1.37768e-05
4.01506e-05
9.30288e-05
0.000126004
1.58562
1.45985
1.41413
1.36186
1.25749
1.08714
0.86269
0.617776
0.400797
0.245019
0.142381
0.0796636
0.0436213
0.0240244
0.0153733
0.0127467
0.0112667
0.00879393
0.00500101
0.000808535
-0.00245408
-0.00447794
-0.00542566
-0.00600732
-0.00661518
-0.00721296
-0.00762001
-0.0076139
-0.00703655
-0.00590391
-0.00442996
-0.00294787
-0.00173398
-0.000889964
-0.000390133
-0.000119236
-1.00305e-05
4.08942e-05
9.12388e-05
0.000125628
0.469252
0.433182
0.456399
0.458675
0.414568
0.329062
0.223984
0.12788
0.0657935
0.0313649
0.013592
0.00484642
0.000583196
-0.00157059
-0.00265307
-0.00299049
-0.00285137
-0.00280696
-0.00328103
-0.00432696
-0.00543083
-0.00626018
-0.00669959
-0.00701639
-0.00742066
-0.00788451
-0.0082502
-0.00825758
-0.00767057
-0.00645732
-0.00483671
-0.00318577
-0.00183231
-0.000906472
-0.000376629
-0.000106735
-3.61467e-06
4.28654e-05
9.04264e-05
0.00012595
0.0705718
0.0532334
0.0685406
0.0794111
0.0720429
0.0515904
0.0283155
0.0108379
0.00232409
-0.00144851
-0.00319666
-0.00405626
-0.00449936
-0.00474625
-0.00492933
-0.00508296
-0.00515444
-0.00517841
-0.00525795
-0.00556602
-0.00607816
-0.00661056
-0.00701915
-0.00737724
-0.00779583
-0.00826611
-0.00867955
-0.00877346
-0.00824792
-0.00701374
-0.00528437
-0.00347495
-0.00197138
-0.000945531
-0.0003711
-9.4313e-05
5.134e-06
4.68298e-05
9.06908e-05
0.00012702
-0.00403262
-0.00567039
-0.00470066
-0.00341063
-0.00216169
-0.00205677
-0.0031873
-0.00415948
-0.00465788
-0.004886
-0.0050051
-0.0050844
-0.0051454
-0.00520224
-0.00528437
-0.00541377
-0.00555293
-0.00565975
-0.00573783
-0.0058968
-0.00621961
-0.00664769
-0.00707843
-0.00750528
-0.00797593
-0.00848488
-0.00896034
-0.00915756
-0.00873978
-0.00753586
-0.00574124
-0.00379613
-0.00214352
-0.0010062
-0.000374606
-8.27524e-05
1.57796e-05
5.32644e-05
9.21922e-05
0.000128867
-0.0125273
-0.011073
-0.00980083
-0.00879572
-0.00793256
-0.00710319
-0.00637797
-0.00582962
-0.00550028
-0.00533226
-0.00525839
-0.00524111
-0.00525626
-0.00529216
-0.00535779
-0.0054736
-0.0056218
-0.00576059
-0.00586791
-0.00600587
-0.00626084
-0.00663735
-0.00707743
-0.00754902
-0.00806291
-0.00860849
-0.00913178
-0.00942523
-0.00913528
-0.00799954
-0.00618129
-0.00413007
-0.00233886
-0.00108554
-0.000387299
-7.27654e-05
2.79652e-05
6.18129e-05
9.51697e-05
0.000131542
-0.0145099
-0.0125405
-0.0107675
-0.00953415
-0.00854618
-0.00765574
-0.0068453
-0.00619466
-0.00575834
-0.00550373
-0.00537046
-0.00531511
-0.00530816
-0.00533208
-0.00538765
-0.00548999
-0.0056304
-0.00577826
-0.0059056
-0.00605033
-0.00628269
-0.00662979
-0.00706665
-0.00755926
-0.00809986
-0.00867174
-0.00922653
-0.00959972
-0.00943072
-0.00839085
-0.00658503
-0.0044597
-0.00254694
-0.00117938
-0.00040856
-6.48869e-05
4.12077e-05
7.19752e-05
9.96017e-05
0.000135138
-0.0161791
-0.0139542
-0.0115733
-0.0100191
-0.00885875
-0.00790813
-0.00709023
-0.0064282
-0.00595469
-0.00565185
-0.00547511
-0.00538589
-0.0053554
-0.00536452
-0.00540885
-0.00549753
-0.00562615
-0.00577292
-0.00591199
-0.00606798
-0.00629511
-0.00662546
-0.00705362
-0.0075518
-0.0081048
-0.00869217
-0.009267
-0.00969723
-0.00963026
-0.00870385
-0.00693914
-0.00477091
-0.00275782
-0.00128296
-0.000437181
-5.94323e-05
5.49704e-05
8.33945e-05
0.000105223
0.000139668
-0.0180198
-0.0156664
-0.0125244
-0.0105629
-0.00918216
-0.00813632
-0.00729455
-0.00662399
-0.0061269
-0.00578807
-0.00557461
-0.00545391
-0.00539946
-0.00539218
-0.00542425
-0.00549961
-0.00561576
-0.00575777
-0.0059042
-0.00606878
-0.00629512
-0.00661577
-0.00703392
-0.00752942
-0.00808487
-0.00867909
-0.00926462
-0.00972904
-0.00974678
-0.00893835
-0.00723558
-0.0050528
-0.00296259
-0.00139139
-0.000471571
-5.65062e-05
6.87364e-05
9.57161e-05
0.000111848
0.000144978
-0.0206498
-0.0179109
-0.0137174
-0.011207
-0.00954141
-0.00836089
-0.00747087
-0.00678403
-0.00626933
-0.00590453
-0.00566207
-0.00551438
-0.00543776
-0.00541404
-0.00543353
-0.00549627
-0.0056003
-0.00573559
-0.0058856
-0.00605698
-0.00628308
-0.00659511
-0.00700197
-0.00749001
-0.00804239
-0.00863875
-0.00922791
-0.009709
-0.00979654
-0.00909672
-0.00747032
-0.00529754
-0.00315379
-0.0015
-0.000509926
-5.60138e-05
8.20611e-05
0.000108566
0.000119273
0.000150867
-0.0257812
-0.0213969
-0.0154509
-0.0120473
-0.00996533
-0.00859225
-0.00762535
-0.00691128
-0.00638094
-0.00599785
-0.00573399
-0.00556478
-0.00546907
-0.00543004
-0.00543726
-0.00548816
-0.00558072
-0.00570811
-0.00585811
-0.00603353
-0.00625906
-0.00656258
-0.00695662
-0.00743356
-0.00797905
-0.00857349
-0.00916365
-0.00965664
-0.00979638
-0.00918232
-0.00764273
-0.00550042
-0.00332575
-0.00160458
-0.000550181
-5.74737e-05
9.47547e-05
0.000121668
0.000127285
0.000157132
-0.0415634
-0.0282129
-0.0184329
-0.0133191
-0.0105358
-0.00886494
-0.00777787
-0.00701906
-0.00646954
-0.00607153
-0.00579147
-0.00560525
-0.00549348
-0.00544063
-0.0054362
-0.00547601
-0.00555774
-0.00567665
-0.00582386
-0.00600024
-0.0062239
-0.00651879
-0.0068993
-0.00736283
-0.00789783
-0.00848591
-0.00907642
-0.00957966
-0.00976573
-0.00921276
-0.00775747
-0.00566039
-0.00347493
-0.00170136
-0.00058968
-5.96286e-05
0.000107176
0.000135012
0.00013579
0.000163574
-0.0865636
-0.0382267
-0.0219903
-0.0147837
-0.011172
-0.00915166
-0.00792218
-0.00710865
-0.00653764
-0.00612704
-0.0058349
-0.00563571
-0.00551097
-0.00544626
-0.00543128
-0.00546094
-0.00553262
-0.00564295
-0.00578557
-0.00596032
-0.00618052
-0.00646646
-0.00683318
-0.00728192
-0.00780367
-0.00838125
-0.00896729
-0.00947586
-0.00970702
-0.00921733
-0.007825
-0.00577833
-0.00359789
-0.00178681
-0.000626089
-6.14986e-05
0.000119495
0.000148502
0.000144972
0.000169974
-0.0460467
-0.0290152
-0.0195172
-0.0136904
-0.0105862
-0.0087884
-0.00768189
-0.00695017
-0.00643818
-0.0060691
-0.00580394
-0.0056204
-0.00550334
-0.00544128
-0.00542598
-0.00545313
-0.00552048
-0.00562573
-0.00576469
-0.00593795
-0.00615647
-0.00643713
-0.0067934
-0.00722769
-0.00773244
-0.00829083
-0.00885656
-0.00934376
-0.00957321
-0.00912201
-0.00776697
-0.00577256
-0.00362955
-0.00182984
-0.000654611
-6.96845e-05
0.000124359
0.000157954
0.000152942
0.00017624
-0.0282259
-0.0219837
-0.0169955
-0.0125843
-0.0100373
-0.00847561
-0.00748616
-0.00682162
-0.00635304
-0.00601338
-0.00576792
-0.00559689
-0.00548718
-0.005429
-0.00541539
-0.00544261
-0.00550877
-0.00561218
-0.00574993
-0.00592306
-0.00614124
-0.0064194
-0.00676999
-0.00719588
-0.00768999
-0.00823487
-0.00878386
-0.00924942
-0.00946009
-0.00902204
-0.00769552
-0.00572771
-0.00360714
-0.00182702
-0.000655544
-6.4993e-05
0.000133726
0.000168495
0.000161236
0.000182392
-0.0191557
-0.0172746
-0.0146037
-0.0114261
-0.00942123
-0.00811333
-0.0072566
-0.00666991
-0.00625155
-0.00594585
-0.00572335
-0.00556732
-0.00546687
-0.00541399
-0.00540305
-0.00543103
-0.00549647
-0.00559832
-0.00573474
-0.00590726
-0.00612446
-0.00639956
-0.00674389
-0.00716048
-0.00764245
-0.00817156
-0.00870064
-0.00914063
-0.00932558
-0.00889314
-0.00760252
-0.00566905
-0.00357309
-0.00181254
-0.000651554
-5.94561e-05
0.000142406
0.000178236
0.000169123
0.000188184
-0.0137084
-0.0138288
-0.0124979
-0.0103109
-0.00878868
-0.00772921
-0.00700921
-0.00650468
-0.00613969
-0.00587024
-0.0056725
-0.005533
-0.00544307
-0.00539652
-0.00538901
-0.0054183
-0.00548346
-0.00558401
-0.00571907
-0.0058906
-0.00610632
-0.0063779
-0.00671557
-0.00712222
-0.00759097
-0.00810268
-0.00860956
-0.00902144
-0.0091769
-0.00874373
-0.00748661
-0.00559291
-0.00352847
-0.00178879
-0.000642508
-5.4021e-05
0.000149974
0.00018703
0.000176453
0.000193545
-0.0102558
-0.0112282
-0.0107296