/*--------------------------------*- C++ -*----------------------------------*\
| =========                 |                                                 |
| \\      /  F ield         | OpenFOAM: The Open Source CFD Toolbox           |
|  \\    /   O peration     | Version:  2312                                  |
|   \\  /    A nd           | Website:  www.openfoam.com                      |
|    \\/     M anipulation  |                                                 |
\*---------------------------------------------------------------------------*/
FoamFile
{
    version     2.0;
    format      ascii;
    arch        "LSB;label=32;scalar=64";
    class       surfaceScalarField;
    location    "13122.1";
    object      phi;
}
// * * * * * * * * * * * * * * * * * * * * * * * * * * * * * * * * * * * * * //

dimensions      [0 3 -1 0 0 0 0];

oriented        oriented;

internalField   nonuniform List<scalar> 
7405
(
9.02257e-06
-2.26344e-05
1.90837e-05
-2.31654e-05
2.91111e-05
-2.23081e-05
3.86958e-05
-2.0895e-05
4.74955e-05
-1.89618e-05
5.51352e-05
-1.64405e-05
6.11912e-05
-1.32559e-05
6.51992e-05
-9.36412e-06
6.66934e-05
-4.80553e-06
6.53421e-05
1.67319e-07
6.00414e-05
5.30079e-06
4.98659e-05
1.01755e-05
3.50295e-05
1.48364e-05
1.58349e-05
1.91947e-05
-7.24567e-06
2.30806e-05
-3.35144e-05
2.62688e-05
-6.2276e-05
2.87616e-05
-9.29488e-05
3.06728e-05
-0.000125067
3.21185e-05
-0.000158292
3.32251e-05
-0.000182029
2.37363e-05
-0.000204359
2.23306e-05
-0.000225249
2.08897e-05
-0.0002446
1.93508e-05
-0.000262172
1.75723e-05
-0.000277558
1.53857e-05
-0.000290143
1.25853e-05
-0.000299087
8.9441e-06
-0.000303277
4.19009e-06
-0.000302195
-1.96797e-06
-0.000296796
-9.43212e-06
-0.000286549
-1.80135e-05
-0.000270995
-2.76318e-05
-0.000249735
-3.82048e-05
-0.000222468
-4.96033e-05
-0.000188979
-6.16981e-05
-0.000149343
-7.40702e-05
-0.000103959
-8.62878e-05
-5.37045e-05
-9.77938e-05
-0.000108382
9.58605e-06
-3.22204e-05
1.82803e-05
-3.18596e-05
2.68151e-05
-3.08429e-05
3.52234e-05
-2.93032e-05
4.32885e-05
-2.70268e-05
5.06687e-05
-2.38207e-05
5.69174e-05
-1.95046e-05
6.14806e-05
-1.39273e-05
6.3694e-05
-7.01902e-06
6.27251e-05
1.13626e-06
5.77972e-05
1.02286e-05
4.80744e-05
1.98983e-05
3.32029e-05
2.97079e-05
1.3222e-05
3.91756e-05
-1.1414e-05
4.77166e-05
-3.99167e-05
5.47715e-05
-7.13129e-05
6.01579e-05
-0.000104654
6.40139e-05
-0.000139079
6.6544e-05
-0.00017379
6.79362e-05
-0.000197684
4.76302e-05
-0.000219363
4.40097e-05
-0.00023868
4.02064e-05
-0.000255372
3.60422e-05
-0.00026908
3.12806e-05
-0.000279367
2.5673e-05
-0.000285759
1.89771e-05
-0.00028782
1.10047e-05
-0.000285268
1.63798e-06
-0.000278119
-9.11685e-06
-0.000266426
-2.11254e-05
-0.00025017
-3.42693e-05
-0.000229395
-4.84073e-05
-0.00020425
-6.3349e-05
-0.000175021
-7.88326e-05
-0.000142346
-9.43726e-05
-0.000107195
-0.000109222
-7.07259e-05
-0.000122756
-3.4352e-05
-0.000134167
-0.000142733
9.17842e-06
-4.13988e-05
1.88147e-05
-4.14959e-05
2.85616e-05
-4.05897e-05
3.82258e-05
-3.89674e-05
4.75624e-05
-3.63635e-05
5.62522e-05
-3.25105e-05
6.38868e-05
-2.71392e-05
6.99485e-05
-1.9989e-05
7.3779e-05
-1.08495e-05
7.45657e-05
3.496e-07
7.13749e-05
1.34195e-05
6.3322e-05
2.79512e-05
4.97415e-05
4.32884e-05
3.03564e-05
5.85606e-05
5.32741e-06
7.27456e-05
-2.46237e-05
8.47227e-05
-5.81442e-05
9.36784e-05
-9.36899e-05
9.95595e-05
-0.000129771
0.000102625
-0.000164997
0.000103162
-0.000188429
7.10625e-05
-0.000208807
6.43874e-05
-0.000225974
5.73736e-05
-0.000239746
4.98141e-05
-0.000249919
4.14537e-05
-0.000256293
3.20467e-05
-0.00025873
2.14146e-05
-0.000257204
9.47818e-06
-0.000251805
-3.76083e-06
-0.000242718
-1.82046e-05
-0.000230097
-3.37461e-05
-0.000214098
-5.02683e-05
-0.0001949
-6.76058e-05
-0.000172729
-8.55206e-05
-0.000147916
-0.000103645
-0.000120878
-0.000121411
-9.19593e-05
-0.00013814
-6.16611e-05
-0.000153054
-3.07259e-05
-0.000165102
-0.000173458
1.05196e-05
-5.19183e-05
2.14396e-05
-5.24158e-05
3.25316e-05
-5.16817e-05
4.36582e-05
-5.0094e-05
5.46104e-05
-4.73156e-05
6.51009e-05
-4.30009e-05
7.47547e-05
-3.6793e-05
8.30915e-05
-2.83258e-05
8.94995e-05
-1.72575e-05
9.31984e-05
-3.34932e-06
9.32345e-05
1.33834e-05
8.85734e-05
3.26123e-05
7.81951e-05
5.36667e-05
6.13372e-05
7.54186e-05
3.77222e-05
9.63606e-05
7.68326e-06
0.000114762
-2.74916e-05
0.000128853
-6.5415e-05
0.000137483
-0.000103514
0.000140724
-0.000139589
0.000139238
-0.000162703
9.41769e-05
-0.000181992
8.36764e-05
-0.000197478
7.28598e-05
-0.000209228
6.15641e-05
-0.000217325
4.95509e-05
-0.000221878
3.65998e-05
-0.000223029
2.25655e-05
-0.000220952
7.40069e-06
-0.000215855
-8.85754e-06
-0.000207945
-2.61155e-05
-0.000197391
-4.43001e-05
-0.000184347
-6.33121e-05
-0.000168934
-8.30195e-05
-0.000151229
-0.000103226
-0.000131253
-0.000123622
-0.000108936
-0.000143729
-8.42486e-05
-0.000162828
-5.73935e-05
-0.000179909
-2.89891e-05
-0.000193506
-0.000202447
1.18035e-05
-6.37217e-05
2.42979e-05
-6.49102e-05
3.71946e-05
-6.45784e-05
5.0354e-05
-6.32534e-05
6.35752e-05
-6.05368e-05
7.65839e-05
-5.60096e-05
8.90216e-05
-4.92307e-05
0.000100428
-3.97326e-05
0.000110214
-2.70432e-05
0.000117611
-1.07464e-05
0.000121605
9.3896e-06
0.000121096
3.31213e-05
0.000114839
5.99239e-05
0.000101634
8.86238e-05
8.06472e-05
0.000117347
5.17709e-05
0.000143638
1.58672e-05
0.000164757
-2.47105e-05
0.000178061
-6.60641e-05
0.000182077
-0.000104359
0.000177533
-0.000128189
0.000118007
-0.000147432
0.000102919
-0.000162327
8.77551e-05
-0.00017322
7.24577e-05
-0.000180482
5.68127e-05
-0.000184471
4.05888e-05
-0.000185517
2.36118e-05
-0.000183918
5.80207e-06
-0.000179964
-1.28124e-05
-0.000173909
-3.21702e-05
-0.000165954
-5.22554e-05
-0.000156211
-7.30554e-05
-0.000144688
-9.45433e-05
-0.000131273
-0.000116642
-0.00011573
-0.000139166
-9.7729e-05
-0.000161731
-7.69662e-05
-0.000183591
-5.33422e-05
-0.000203534
-2.73428e-05
-0.000219506
-0.000229792
1.32099e-05
-7.69315e-05
2.73678e-05
-7.90681e-05
4.21623e-05
-7.93729e-05
5.746e-05
-7.85511e-05
7.30678e-05
-7.61445e-05
8.87188e-05
-7.16606e-05
0.000104063
-6.45751e-05
0.000118652
-5.43217e-05
0.000131912
-4.03032e-05
0.000143102
-2.19366e-05
0.000151251
1.24103e-06
0.000155124
2.92477e-05
0.000153351
6.16972e-05
0.000144431
9.75441e-05
0.000127012
0.000134765
0.000100366
0.000170285
6.49331e-05
0.00020019
2.26776e-05
0.000220316
-2.23712e-05
0.000227126
-6.44088e-05
0.00021957
-8.99824e-05
0.000143581
-0.000110082
0.000123019
-0.000125142
0.000102815
-0.00013577
8.30863e-05
-0.000142617
6.36599e-05
-0.000146308
4.42797e-05
-0.000147403
2.47064e-05
-0.000146373
4.77286e-06
-0.000143624
-1.55614e-05
-0.000139482
-3.63122e-05
-0.000134165
-5.75721e-05
-0.000127747
-7.9473e-05
-0.000120138
-0.000102152
-0.000111073
-0.000125707
-0.000100108
-0.000150131
-8.66522e-05
-0.000175187
-7.00447e-05
-0.000200198
-4.97342e-05
-0.000223845
-2.59864e-05
-0.000243256
-0.000255783
1.45259e-05
-9.14574e-05
3.02461e-05
-9.47882e-05
4.68373e-05
-9.5964e-05
6.41668e-05
-9.58806e-05
8.20385e-05
-9.40163e-05
0.000100181
-8.98031e-05
0.00011824
-8.26339e-05
0.000135765
-7.18473e-05
0.000152192
-5.67301e-05
0.000166802
-3.65467e-05
0.000178664
-1.06207e-05
0.000186448
2.14638e-05
0.000188729
5.94162e-05
0.000183855
0.000102418
0.00017014
0.00014848
0.000146314
0.00019411
0.000112233
0.000234271
6.96214e-05
0.000262928
2.2339e-05
0.000274408
-2.34549e-05
0.000265364
-5.12147e-05
0.000171341
-7.24647e-05
0.000144269
-8.78265e-05
0.000118177
-9.81532e-05
9.34131e-05
-0.000104373
6.98797e-05
-0.000107388
4.72952e-05
-0.000108026
2.53442e-05
-0.000106986
3.73332e-06
-0.00010484
-1.77075e-05
-0.00010203
-3.91215e-05
-9.8838e-05
-6.07636e-05
-9.53551e-05
-8.29547e-05
-9.14636e-05
-0.000106043
-8.68064e-05
-0.000130363
-8.07729e-05
-0.000156165
-7.24856e-05
-0.000183474
-6.08256e-05
-0.000211858
-4.46818e-05
-0.00023999
-2.3991e-05
-0.000263949
-0.00027978
1.56908e-05
-0.000107148
3.27847e-05
-0.000111882
5.09573e-05
-0.000114137
7.00663e-05
-0.00011499
8.98954e-05
-0.000113845
0.000110148
-0.000110056
0.000130446
-0.000102931
0.000150315
-9.17166e-05
0.000169177
-7.55922e-05
0.000186316
-5.36854e-05
0.000200821
-2.51265e-05
0.000211468
1.08174e-05
0.00021676
5.41238e-05
0.000214984
0.000104194
0.000204323
0.000159142
0.000183225
0.000215208
0.000151129
0.000266366
0.000109432
0.000304625
6.21355e-05
0.000321705
1.52451e-05
0.000312255
-1.37005e-05
0.000200286
-3.56017e-05
0.00016617
-5.07217e-05
0.000133297
-6.01995e-05
0.000102891
-6.52079e-05
7.4888e-05
-6.68825e-05
4.89697e-05
-6.62778e-05
2.47396e-05
-6.4314e-05
1.76963e-06
-6.1757e-05
-2.02644e-05
-5.92208e-05
-4.16571e-05
-5.71281e-05
-6.2856e-05
-5.57009e-05
-8.43804e-05
-5.49315e-05
-0.000106812
-5.45124e-05
-0.00013078
-5.37735e-05
-0.000156903
-5.15816e-05
-0.000185664
-4.63206e-05
-0.000217119
-3.61396e-05
-0.000250171
-2.02977e-05
-0.000279792
-0.000300081
1.66704e-05
-0.000123818
3.49156e-05
-0.000130127
5.44101e-05
-0.000133631
7.49831e-05
-0.000135563
9.63746e-05
-0.000135237
0.000118237
-0.000131919
0.000140137
-0.000124831
0.000161551
-0.000113131
0.000181864
-9.5905e-05
0.000200346
-7.21671e-05
0.000216118
-4.08988e-05
0.000228086
-1.15036e-06
0.000234733
4.74762e-05
0.000234433
0.000104494
0.000225472
0.000168102
0.000206369
0.000234312
0.000176533
0.000296203
0.000137254
0.000343905
9.24815e-05
0.000366477
4.8324e-05
0.000356412
2.09943e-05
0.000227616
4.57077e-07
0.000186707
-1.3239e-05
0.000146993
-2.10111e-05
0.000110663
-2.40455e-05
7.79222e-05
-2.35834e-05
4.85074e-05
-2.08131e-05
2.19691e-05
-1.68147e-05
-2.22895e-06
-1.25489e-05
-2.45301e-05
-8.81084e-06
-4.53951e-05
-6.25036e-06
-6.54161e-05
-5.36934e-06
-8.52606e-05
-6.46519e-06
-0.000105716
-9.51594e-06
-0.000127726
-1.40273e-05
-0.000152392
-1.88094e-05
-0.00018088
-2.18628e-05
-0.000214069
-2.04661e-05
-0.00025157
-1.27705e-05
-0.000287487
-0.000312842
1.75619e-05
-0.00014138
3.67842e-05
-0.000149349
5.73506e-05
-0.000154197
7.90511e-05
-0.000157263
0.000101556
-0.000157742
0.000124432
-0.000154795
0.000147154
-0.000147552
0.000169109
-0.000135087
0.000189607
-0.000116403
0.000207887
-9.04472e-05
0.000223117
-5.61289e-05
0.000234367
-1.24004e-05
0.000240301
4.15419e-05
0.000239488
0.000105306
0.00023062
0.000176971
0.000212734
0.000252198
0.000185716
0.000323221
0.000151089
0.000378532
0.000112615
0.000404951
7.57499e-05
0.000393277
5.34249e-05
0.000249941
3.71777e-05
0.000202954
2.68386e-05
0.000157332
2.19743e-05
0.000115527
2.16707e-05
7.82257e-05
2.48594e-05
4.53184e-05
3.04733e-05
1.63551e-05
3.74349e-05
-9.19111e-06
4.46695e-05
-3.17645e-05
5.11184e-05
-5.18448e-05
5.57889e-05
-7.00862e-05
5.77915e-05
-8.72643e-05
5.64285e-05
-0.000104352
5.1302e-05
-0.0001226
4.25168e-05
-0.000143607
3.0931e-05
-0.000169295
1.84583e-05
-0.000201607
7.95268e-06
-0.000241072
2.42891e-06
-0.000281959
-0.000310392
1.82681e-05
-0.000159648
3.82795e-05
-0.000169361
5.97104e-05
-0.000175628
8.22903e-05
-0.000179843
0.000105588
-0.000181039
0.000129048
-0.000178255
0.000152011
-0.000170516
0.000173719
-0.000156794
0.000193327
-0.000136011
0.000209921
-0.000107041
0.000222535
-6.87432e-05
0.000230203
-2.00683e-05
0.000232197
3.95475e-05
0.000228053
0.000109451
0.000217496
0.000187528
0.000200517
0.000269176
0.00017771
0.000346028
0.000150671
0.000405571
0.000122027
0.000433595
9.4744e-05
0.00042056
7.8993e-05
0.000265692
6.81264e-05
0.000213821
6.23592e-05
0.000163099
6.17286e-05
0.000116157
6.58608e-05
7.40933e-05
7.40568e-05
3.71222e-05
8.58081e-05
4.60371e-06
9.85671e-05
-2.19506e-05
0.000111364
-4.45615e-05
0.000122766
-6.32478e-05
0.000131455
-7.87738e-05
0.000136317
-9.21289e-05
0.000136464
-0.000104499
0.000131265
-0.000117407
0.00012049
-0.00013283
0.00010437
-0.000153173
8.36061e-05
-0.000180845
5.78798e-05
-0.000215344
3.25082e-05
-0.000256589
-0.000277884
1.83595e-05
-0.000178008
3.87846e-05
-0.000189786
6.06437e-05
-0.000197487
8.34709e-05
-0.00020267
0.000106643
-0.000204211
0.00012943
-0.000201042
0.000151026
-0.000192112
0.000170558
-0.000176327
0.000187126
-0.00015258
0.00019985
-0.000119765
0.000207879
-7.67722e-05
0.000210495
-2.2684e-05
0.000207388
4.26547e-05
0.000200006
0.000116832
0.000189482
0.000198052
0.000177191
0.000281467
0.000164877
0.000358342
0.000154319
0.00041613
0.000146631
0.000441282
0.000141832
0.00042536
0.000136905
0.000270618
0.000134426
0.0002163
0.000135177
0.000162349
0.000139707
0.000111627
0.000148322
6.54773e-05
0.000160758
2.46862e-05
0.000175653
-1.02923e-05
0.000193488
-3.97856e-05
0.000211133
-6.22072e-05
0.000226694
-7.88091e-05
0.00023895
-9.10315e-05
0.000246992
-0.00010017
0.000250093
-0.000107601
0.000248
-0.000115314
0.00024075
-0.00012558
0.000227758
-0.000140183
0.000206089
-0.000159162
0.00017104
-0.000180287
0.000106187
-0.000191735
-0.000171713
1.73298e-06
-0.00017974
3.73537e-06
-0.000191788
6.20941e-06
-0.000199961
9.495e-06
-0.000205956
1.39517e-05
-0.000208667
1.99999e-05
-0.00020709
2.81979e-05
-0.00020031
3.92182e-05
-0.000187347
5.39016e-05
-0.000167263
7.33879e-05
-0.000139251
9.91453e-05
-0.00010253
0.000132821
-5.63595e-05
0.000174817
6.58196e-07
0.000224962
6.66868e-05
0.000282347
0.000140667
0.000344895
0.000218919
0.00040775
0.000295487
0.000462712
0.000361168
0.000499045
0.00040495
0.000506219
0.000418185
0.000491721
0.000285115
0.000461764
0.000246258
0.000420444
0.000203669
0.000371556
0.000160515
0.00031801
0.000119023
0.00026214
8.05561e-05
0.000206119
4.57292e-05
0.000151585
1.47481e-05
0.00010092
-1.15425e-05
5.48151e-05
-3.27046e-05
1.24521e-05
-4.86687e-05
-2.76999e-05
-6.00186e-05
-6.78605e-05
-6.74404e-05
-0.000111273
-7.19029e-05
-0.000161466
-7.5387e-05
-0.000221683
-7.99651e-05
-0.00029421
-8.66351e-05
-0.000380089
-9.44107e-05
-0.000473799
-9.80299e-05
-9.35191e-05
-0.000551997
-1.07898e-06
-0.000178661
-1.71201e-06
-0.000191155
-1.84308e-06
-0.00019983
-1.25636e-06
-0.000206542
3.67035e-07
-0.000210291
3.43104e-06
-0.000210154
8.40151e-06
-0.00020528
1.58056e-05
-0.000194751
2.61823e-05
-0.00017764
4.03565e-05
-0.000153426
5.93325e-05
-0.000121506
8.44547e-05
-8.14817e-05
0.000117881
-3.27686e-05
0.000159127
2.54407e-05
0.000208566
9.12278e-05
0.000265478
0.000162008
0.000327407
0.000233558
0.000389338
0.000299236
0.000443653
0.000350635
0.000481708
0.00038013
0.00049462
0.000272203
0.00049339
0.000247488
0.000479705
0.000217353
0.000455562
0.000184658
0.000422908
0.000151677
0.000383355
0.000120109
0.000337933
9.11514e-05
0.000287103
6.55772e-05
0.000231823
4.37378e-05
0.00017304
2.60779e-05
0.000110995
1.33759e-05
4.48335e-05
6.14298e-06
-2.76399e-05
5.0326e-06
-0.000110585
1.10408e-05
-0.000208441
2.24688e-05
-0.000324446
3.60377e-05
-0.000457203
4.61207e-05
-0.000600497
4.88833e-05
-0.000744582
4.60557e-05
4.05188e-05
-0.00087862
-2.19585e-06
-0.000176466
-4.19496e-06
-0.000189156
-5.91155e-06
-0.000198114
-7.14065e-06
-0.000205313
-7.57835e-06
-0.000209853
-6.82851e-06
-0.000210904
-4.46358e-06
-0.000207645
1.73748e-08
-0.000199232
7.16234e-06
-0.000184785
1.74843e-05
-0.000163748
3.14603e-05
-0.000135482
5.00656e-05
-0.000100087
7.47272e-05
-5.74303e-05
0.00010734
-7.17201e-06
0.000148398
5.0169e-05
0.000198101
0.000112305
0.000255257
0.000176401
0.000316657
0.000237836
0.00037683
0.000290461
0.000428763
0.000328197
0.000457149
0.000243818
0.000474578
0.000230059
0.000481451
0.00021048
0.000478806
0.000187303
0.000468082
0.000162401
0.000450915
0.000137276
0.000428978
0.000113089
0.000403846
9.07087e-05
0.00037681
7.07732e-05
0.000349071
5.3817e-05
0.00032207
4.03769e-05
0.000297217
3.0996e-05
0.000276058
2.61914e-05
0.000260779
2.63191e-05
0.000252061
3.11863e-05
0.000248385
3.97133e-05
0.000244717
4.97882e-05
0.000234614
5.89844e-05
0.000215
6.56693e-05
6.92511e-05
0.000186268
-3.0832e-06
-0.000173382
-6.13528e-06
-0.000186104
-9.04882e-06
-0.0001952
-1.1633e-05
-0.000202729
-1.36121e-05
-0.000207874
-1.46444e-05
-0.000209872
-1.43281e-05
-0.000207962
-1.21897e-05
-0.00020137
-7.63256e-06
-0.000189342
-1.85023e-07
-0.000171195
1.06331e-05
-0.0001463
2.52156e-05
-0.00011467
4.43235e-05
-7.65383e-05
6.96232e-05
-3.24718e-05
0.000102451
1.73413e-05
0.000143597
7.11587e-05
0.000193145
0.000126853
0.000249507
0.000181475
0.000309135
0.000230833
0.000366951
0.000270381
0.000404028
0.000206741
0.00043351
0.000200577
0.000454944
0.000189045
0.000468452
0.000173795
0.000474577
0.000156276
0.000474146
0.000137707
0.000468152
0.000119083
0.000457675
0.000101185
0.000443839
8.46087e-05
0.000427847
6.98088e-05
0.000411072
5.71515e-05
0.000395108
4.69599e-05
0.000381765
3.95346e-05
0.000372953
3.51308e-05
0.00037027
3.38691e-05
0.000374408
3.55749e-05
0.000384546
3.96494e-05
0.000398409
4.51218e-05
0.000413153
5.0925e-05
5.61031e-05
0.000426301
-3.74516e-06
-0.000169637
-7.61343e-06
-0.000182236
-1.14737e-05
-0.00019134
-1.51438e-05
-0.000199059
-1.83609e-05
-0.000204657
-2.07966e-05
-0.000207436
-2.20637e-05
-0.000206695
-2.17228e-05
-0.000201711
-1.92898e-05
-0.000191775
-1.42477e-05
-0.000176238
-5.96193e-06
-0.000154586
5.90585e-06
-0.000126537
2.16854e-05
-9.23178e-05
4.19416e-05
-5.27281e-05
6.82644e-05
-8.98152e-06
0.000101653
3.77696e-05
0.000143046
8.54605e-05
0.000192248
0.000132273
0.000247461
0.00017562
0.000305422
0.00021242
0.000345899
0.000166264
0.000381758
0.000164718
0.000412194
0.000158608
0.000436868
0.000149121
0.000455828
0.000137316
0.000469416
0.00012412
0.000478174
0.000110324
0.000482777
9.65821e-05
0.00048397
8.3416e-05
0.000482542
7.12361e-05
0.000479335
6.03586e-05
0.000475269
5.10254e-05
0.000471383
4.34202e-05
0.000468836
3.76778e-05
0.000468827
3.38787e-05
0.000472379
3.20229e-05
0.000480038
3.19903e-05
0.000491639
3.35206e-05
0.000506318
3.62464e-05
3.97646e-05
0.000522656
-4.28712e-06
-0.00016535
-8.83209e-06
-0.000177691
-1.34857e-05
-0.000186686
-1.8079e-05
-0.000194466
-2.23654e-05
-0.00020037
-2.60315e-05
-0.00020377
-2.86987e-05
-0.000204027
-2.99311e-05
-0.000200479
-2.92506e-05
-0.000192456
-2.61596e-05
-0.000179329
-2.01526e-05
-0.000160593
-1.07049e-05
-0.000135985
2.58188e-06
-0.000105605
1.9902e-05
-7.00483e-05
4.16966e-05
-3.07762e-05
6.91378e-05
1.03284e-05
0.000103272
5.13267e-05
0.000144921
9.06237e-05
0.000193656
0.000126885
0.000247751
0.000158325
0.000287692
0.000126323
0.000325323
0.000127087
0.000359743
0.000124188
0.000390386
0.000118478
0.000416992
0.00011071
0.00043955
0.000101561
0.000458247
9.16272e-05
0.000473412
8.14174e-05
0.000485471
7.13562e-05
0.00049492
6.17877e-05
0.000502294
5.29836e-05
0.000508168
4.51514e-05
0.000513147
3.84414e-05
0.000517872
3.29529e-05
0.000523011
2.87399e-05
0.000529219
2.58145e-05
0.000537062
2.41482e-05
0.000546906
2.36769e-05
0.000558836
2.43162e-05
2.5993e-05
0.000572608
-4.75114e-06
-0.000160599
-9.87975e-06
-0.000172562
-1.52248e-05
-0.000181341
-2.06343e-05
-0.000189056
-2.58852e-05
-0.00019512
-3.06878e-05
-0.000198968
-3.46833e-05
-0.000200032
-3.74453e-05
-0.000197717
-3.84903e-05
-0.000191411
-3.73021e-05
-0.000180517
-3.33714e-05
-0.000164524
-2.62335e-05
-0.000143123
-1.54645e-05
-0.000116374
-6.53083e-07
-8.48598e-05
1.82525e-05
-4.96819e-05
4.16067e-05
-1.30259e-05
7.01035e-05
2.28298e-05
0.000104934
5.57932e-05
0.000146652
8.51666e-05
0.000194732
0.000110245
0.000231623
8.94317e-05
0.000267796
9.09135e-05
0.000302419
8.95655e-05
0.000334887
8.60097e-05
0.000364817
8.07803e-05
0.000392019
7.43593e-05
0.000416465
6.7181e-05
0.000438254
5.96283e-05
0.000457579
5.20311e-05
0.000474699
4.46673e-05
0.000489917
3.77657e-05
0.000503559
3.15093e-05
0.000515963
2.60373e-05
0.00052747
2.14463e-05
0.000538419
1.77912e-05
0.000549144
1.50896e-05
0.000559963
1.33295e-05
0.000571161
1.24794e-05
0.000582961
1.25161e-05
1.34555e-05
0.000595499
-5.16673e-06
-0.000155432
-1.08149e-05
-0.000166914
-1.67784e-05
-0.000175378
-2.29258e-05
-0.000182909
-2.90629e-05
-0.000188982
-3.49334e-05
-0.000193097
-4.02127e-05
-0.000194753
-4.45046e-05
-0.000193425
-4.73423e-05
-0.000188573
-4.82037e-05
-0.000179655
-4.6546e-05
-0.000166181
-4.18627e-05
-0.000147807
-3.37474e-05
-0.000124489
-2.18958e-05
-9.67115e-05
-5.91261e-06
-6.56651e-05
1.42448e-05
-3.31835e-05
3.87814e-05
-1.70682e-06
6.79409e-05
2.66336e-05
0.000102949
5.01582e-05
0.000144062
6.91327e-05
0.000176358
5.71354e-05
0.000208805
5.84661e-05
0.000240713
5.76576e-05
0.000271539
5.51837e-05
0.000300892
5.14272e-05
0.000328521
4.673e-05
0.000354296
4.14064e-05
0.000378186
3.57389e-05
0.00040024
2.99764e-05
0.000420572
2.43354e-05
0.00043934
1.8998e-05
0.000456734
1.41162e-05
0.000472955
9.81636e-06
0.000488201
6.20076e-06
0.000502662
3.32983e-06
0.000516518
1.2342e-06
0.000529915
-6.74012e-08
0.000543054
-6.59667e-07
0.000556066
-4.95504e-07
4.16853e-07
0.000569105
-5.54367e-06
-0.000149888
-1.16554e-05
-0.000160802
-1.81706e-05
-0.000168863
-2.49798e-05
-0.0001761
-3.19207e-05
-0.000182041
-3.87763e-05
-0.000186242
-4.52679e-05
-0.000188261
-5.10482e-05
-0.000187645
-5.56979e-05
-0.000183924
-5.87299e-05
-0.000176624
-5.96082e-05
-0.000165303
-5.77931e-05
-0.000149622
-5.28182e-05
-0.000129464
-4.43753e-05
-0.000105154
-3.22972e-05
-7.77433e-05
-1.62922e-05
-4.91885e-05
3.98198e-06
-2.19811e-05
2.85882e-05
2.02736e-06
5.75486e-05
2.11978e-05
9.13917e-05
3.52897e-05
0.000118164
3.0363e-05
0.000145317
3.13129e-05
0.000172314
3.06611e-05
0.000198702
2.87958e-05
0.000224137
2.59924e-05
0.000248368
2.24985e-05
0.000271207
1.85681e-05
0.000292527
1.44186e-05
0.000312263
1.02404e-05
0.000330386
6.21284e-06
0.000346894
2.48984e-06
0.000361826
-8.15388e-07
0.000375314
-3.67102e-06
0.000387522
-6.00721e-06
0.000398656
-7.80479e-06
0.000408938
-9.04699e-06
0.000418604
-9.73373e-06
0.000427823
-9.87804e-06
0.000436822
-9.4947e-06
-8.56234e-06
0.000445801
-5.87515e-06
-0.000144013
-1.23847e-05
-0.000154292
-1.9371e-05
-0.000161876
-2.67465e-05
-0.000168724
-3.43802e-05
-0.000174408
-4.20953e-05
-0.000178527
-4.96626e-05
-0.000180694
-5.67939e-05
-0.000180514
-6.31373e-05
-0.00017758
-6.82755e-05
-0.000171485
-7.17352e-05
-0.000161844
-7.30134e-05
-0.000148344
-7.1635e-05
-0.000130843
-6.72505e-05
-0.000109539
-5.97352e-05
-8.52586e-05
-4.91221e-05
-5.98017e-05
-3.51755e-05
-3.59277e-05
-1.69866e-05
-1.61616e-05
5.49524e-06
-1.28405e-06
3.18057e-05
8.97917e-06
5.23792e-05
9.78954e-06
7.30833e-05
1.06088e-05
9.34518e-05
1.02927e-05
0.000113033
9.21438e-06
0.000131551
7.4747e-06
0.00014882
5.22981e-06
0.000164575
2.81296e-06
0.000178573
4.20678e-07
0.000190667
-1.85297e-06
0.000200843
-3.96327e-06
0.000209193
-5.86013e-06
0.000215875
-7.49773e-06
0.00022104
-8.83569e-06
0.000224877
-9.84433e-06
0.000227584
-1.05109e-05
0.000229377
-1.08407e-05
0.000230493
-1.0849e-05
0.000231174
-1.05587e-05
0.000231675
-9.99608e-06
-9.1438e-06
0.000232257
-6.14302e-06
-0.00013787
-1.29626e-05
-0.000147473
-2.03131e-05
-0.000154526
-2.81266e-05
-0.000160911
-3.63001e-05
-0.000166234
-4.46932e-05
-0.000170134
-5.31229e-05
-0.000172264
-6.13586e-05
-0.000172278
-6.91184e-05
-0.000169821
-7.60685e-05
-0.000164535
-8.18289e-05
-0.000156083
-8.59925e-05
-0.00014418
-8.81674e-05
-0.000128668
-8.80579e-05
-0.000109649
-8.55893e-05
-8.77271e-05
-8.09992e-05
-6.43919e-05
-7.45759e-05
-4.23511e-05
-6.58384e-05
-2.48992e-05
-5.35492e-05
-1.35732e-05
-3.74931e-05
-7.07699e-06
-2.48258e-05
-2.87769e-06
-1.23522e-05
-1.86488e-06
-5.90078e-07
-1.46936e-06
1.00507e-05
-1.42641e-06
1.92526e-05
-1.72715e-06
2.68221e-05
-2.33973e-06
3.2719e-05
-3.08389e-06
3.70011e-05
-3.86145e-06
3.97587e-05
-4.61053e-06
4.1076e-05
-5.28057e-06
4.10561e-05
-5.84012e-06
3.9841e-05
-6.28276e-06
3.76184e-05
-6.61294e-06
3.46095e-05
-6.83551e-06
3.10496e-05
-6.95091e-06
2.71706e-05
-6.96175e-06
2.31978e-05
-6.87609e-06
1.93466e-05
-6.70764e-06
1.58208e-05
-6.47015e-06
-6.15144e-06
1.28286e-05
-6.32415e-06
-0.000131545
-1.334e-05
-0.000140457
-2.09178e-05
-0.000146948
-2.90055e-05
-0.000152823
-3.75227e-05
-0.000157717
-4.63579e-05
-0.000161299
-5.53651e-05
-0.000163257
-6.43601e-05
-0.000163283
-7.31184e-05
-0.000161062
-8.13762e-05
-0.000156278
-8.88372e-05
-0.000148622
-9.51908e-05
-0.000137826
-0.00010015
-0.000123708
-0.000103526
-0.000106273
-0.000105352
-8.59004e-05
-0.00010606
-6.36844e-05
-0.00010648
-4.19311e-05
-0.000107107
-2.42724e-05
-0.000107111
-1.35688e-05
-0.000105591
-8.59718e-06
-0.000103926
-4.54271e-06
-0.000102164
-3.6275e-06
-0.000100568
-3.06539e-06
-9.92845e-05
-2.7095e-06
-9.84787e-05
-2.533e-06
-9.82941e-05
-2.52442e-06
-9.8725e-05
-2.65289e-06
-9.97057e-05
-2.88083e-06
-0.000101141
-3.17519e-06
-0.000102916
-3.50583e-06
-0.00010491
-3.84569e-06
-0.000107017
-4.17605e-06
-0.000109144
-4.48568e-06
-0.000111212
-4.76734e-06
-0.000113147
-5.01587e-06
-0.000114881
-5.22816e-06
-0.000116353
-5.40451e-06
-0.00011751
-5.5504e-06
-0.000118309
-5.67077e-06
-5.74731e-06
-0.000118713
-6.40228e-06
-0.000125143
-1.3485e-05
-0.000133374
-2.11359e-05
-0.000139297
-2.93152e-05
-0.000144644
-3.79581e-05
-0.000149074
-4.69735e-05
-0.000152283
-5.6241e-05
-0.00015399
-6.56074e-05
-0.000153917
-7.48859e-05
-0.000151784
-8.3856e-05
-0.000147308
-9.22707e-05
-0.000140208
-9.98709e-05
-0.000130226
-0.000106418
-0.000117161
-0.000111758
-0.000100933
-0.000115934
-8.17243e-05
-0.000119385
-6.02331e-05
-0.000123152
-3.81649e-05
-0.000128569
-1.88547e-05
-0.000135676
-6.46166e-06
-0.000143007
-1.26704e-06
-0.000147777
2.27788e-07
-0.000151854
4.49089e-07
-0.000155229
3.10299e-07
-0.000157928
-1.12202e-08
-0.000159985
-4.75736e-07
-0.000161493
-1.01669e-06
-0.000162534
-1.61137e-06
-0.000163184
-2.2308e-06
-0.000163509
-2.85084e-06
-0.000163561
-3.4535e-06
-0.000163384
-4.02287e-06
-0.000163013
-4.54692e-06
-0.000162481
-5.01752e-06
-0.000161818
-5.43025e-06
-0.000161051
-5.78351e-06
-0.000160201
-6.07804e-06
-0.000159288
-6.31772e-06
-0.000158327
-6.51087e-06
-0.000157333
-6.66465e-06
-6.75977e-06
-0.000156321
-6.38137e-06
-0.000118761
-1.34096e-05
-0.000126345
-2.09906e-05
-0.000131716
-2.90924e-05
-0.000136542
-3.76607e-05
-0.000140506
-4.66178e-05
-0.000143327
-5.58592e-05
-0.000144749
-6.52515e-05
-0.000144525
-7.46294e-05
-0.000142407
-8.37954e-05
-0.000138142
-9.25234e-05
-0.00013148
-0.000100567
-0.000122182
-0.000107683
-0.000110045
-0.000113667
-9.49493e-05
-0.000118438
-7.69534e-05
-0.000122184
-5.64867e-05
-0.000125614
-3.47351e-05
-0.000130146
-1.43226e-05
-0.000137087
4.79376e-07
-0.000145687
7.33234e-06
-0.000151872
6.41365e-06
-0.000157536
6.1128e-06
-0.000162575
5.34906e-06
-0.000166924
4.33753e-06
-0.000170594
3.19477e-06
-0.000173607
1.99652e-06
-0.000176011
7.92248e-07
-0.000177858
-3.8404e-07
-0.000179201
-1.50817e-06
-0.000180094
-2.55979e-06
-0.000180595
-3.52235e-06
-0.000180752
-4.38946e-06
-0.000180613
-5.15652e-06
-0.000180223
-5.82126e-06
-0.000179622
-6.38407e-06
-0.000178852
-6.84833e-06
-0.000177948
-7.22103e-06
-0.000176946
-7.5137e-06
-0.000175874
-7.73615e-06
-7.87138e-06
-0.000174762
-6.29298e-06
-0.000112467
-1.31802e-05
-0.000119458
-2.05871e-05
-0.000124309
-2.84875e-05
-0.000128642
-3.68343e-05
-0.000132159
-4.55591e-05
-0.000134602
-5.45695e-05
-0.000135739
-6.37464e-05
-0.000135348
-7.29414e-05
-0.000133212
-8.19757e-05
-0.000129108
-9.06416e-05
-0.000122814
-9.87085e-05
-0.000114115
-0.000105937
-0.000102817
-0.000112107
-8.87796e-05
-0.00011707
-7.19895e-05
-0.000120863
-5.26941e-05
-0.000123911
-3.1687e-05
-0.000127376
-1.0857e-05
-0.000133139
6.24263e-06
-0.000141819
1.60116e-05
-0.000148903
1.34981e-05
-0.000155885
1.30946e-05
-0.000162532
1.19959e-05
-0.000168706
1.05115e-05
-0.000174314
8.80282e-06
-0.000179295
6.97765e-06
-0.000183616
5.11318e-06
-0.000187267
3.26666e-06
-0.000190258
1.48338e-06
-0.000192618
-1.99668e-07
-0.000194376
-1.7651e-06
-0.000195577
-3.18843e-06
-0.000196275
-4.45876e-06
-0.000196522
-5.57423e-06
-0.000196372
-6.53378e-06
-0.000195882
-7.33884e-06
-0.000195107
-7.99569e-06
-0.000194103
-8.51737e-06
-0.000192924
-8.91565e-06
-9.1726e-06
-0.000191622
-6.17014e-06
-0.000106297
-1.28679e-05
-0.00011276
-2.00389e-05
-0.000117138
-2.76606e-05
-0.00012102
-3.56907e-05
-0.000124129
-4.4067e-05
-0.000126226
-5.27059e-05
-0.0001271
-6.14992e-05
-0.000126555
-7.03122e-05
-0.000124399
-7.89825e-05
-0.000120438
-8.73212e-05
-0.000114476
-9.51182e-05
-0.000106318
-0.000102154
-9.57807e-05
-0.000108224
-8.27099e-05
-0.00011318
-6.70326e-05
-0.000117022
-4.88522e-05
-0.00012006
-2.86491e-05
-0.000123232
-7.68461e-06
-0.000128393
1.14037e-05
-0.000137267
2.48862e-05
-0.000145471
2.17012e-05
-0.000154079
2.17027e-05
-0.000162654
2.05714e-05
-0.000170962
1.88196e-05
-0.000178837
1.66769e-05
-0.000186147
1.42882e-05
-0.000192795
1.17611e-05
-0.000198708
9.17969e-06
-0.000203836
6.61127e-06
-0.000208147
4.11127e-06
-0.000211639
1.72693e-06
-0.000214328
-5.00146e-07
-0.000216243
-2.5437e-06
-0.000217438
-4.37867e-06
-0.000217978
-5.994e-06
-0.000217927
-7.38985e-06
-0.000217356
-8.5671e-06
-0.000216341
-9.53215e-06
-0.000214966
-1.02909e-05
-1.08166e-05
-0.000213321
-6.03653e-06
-0.00010026
-1.25301e-05
-0.000106266
-1.94424e-05
-0.000110225
-2.67516e-05
-0.000113711
-3.44164e-05
-0.000116465
-4.23776e-05
-0.000118265
-5.0556e-05
-0.000118922
-5.88499e-05
-0.000118262
-6.71332e-05
-0.000116116
-7.5254e-05
-0.000112317
-8.30356e-05
-0.000106694
-9.0282e-05
-9.9072e-05
-9.67886e-05
-8.92741e-05
-0.000102365
-7.7134e-05
-0.000106872
-6.25251e-05
-0.000110299
-4.54252e-05
-0.000112897
-2.60508e-05
-0.000115449
-5.13244e-06
-0.000119651
1.5606e-05
-0.000127908
3.31435e-05
-0.000136746
3.05386e-05
-0.00014692
3.18767e-05
-0.000157668
3.13199e-05
-0.000168558
2.97091e-05
-0.000179314
2.74332e-05
-0.000189723
2.46975e-05
-0.000199605
2.16435e-05
-0.00020881
1.83841e-05
-0.000217213
1.50145e-05
-0.000224717
1.16151e-05
-0.000231245
8.25464e-06
-0.000236737
4.99247e-06
-0.000241165
1.88367e-06
-0.000244521
-1.02277e-06
-0.000246821
-3.69412e-06
-0.000248118
-6.09216e-06
-0.000248481
-8.20432e-06
-0.000247993
-1.00198e-05
-0.00024677
-1.15145e-05
-1.26306e-05
-0.000244956
-5.95018e-06
-9.43095e-05
-1.2267e-05
-9.99493e-05
-1.89338e-05
-0.000103559
-2.5931e-05
-0.000106714
-3.32167e-05
-0.000109179
-4.0731e-05
-0.000110751
-4.83948e-05
-0.000111258
-5.61076e-05
-0.000110549
-6.37448e-05
-0.000108479
-7.11563e-05
-0.000104906
-7.81662e-05
-9.96843e-05
-8.45766e-05
-9.26616e-05
-9.01776e-05