/*--------------------------------*- C++ -*----------------------------------*\
| =========                 |                                                 |
| \\      /  F ield         | OpenFOAM: The Open Source CFD Toolbox           |
|  \\    /   O peration     | Version:  2312                                  |
|   \\  /    A nd           | Website:  www.openfoam.com                      |
|    \\/     M anipulation  |                                                 |
\*---------------------------------------------------------------------------*/
FoamFile
{
    version     2.0;
    format      ascii;
    arch        "LSB;label=32;scalar=64";
    class       volVectorField;
    location    "13122.1";
    object      U;
}
// * * * * * * * * * * * * * * * * * * * * * * * * * * * * * * * * * * * * * //

dimensions      [0 1 -1 0 0 0 0];

internalField   nonuniform List<vector> 
3780
(
(0.0016763 -0.0247733 7.69341e-19)
(0.00300907 -0.0216972 4.18824e-19)
(0.00473655 -0.0184843 -1.08003e-19)
(0.00649429 -0.0154637 1.81368e-20)
(0.00807086 -0.0126115 1.73458e-19)
(0.00936858 -0.00990664 1.42042e-19)
(0.0103435 -0.00734595 -2.85143e-22)
(0.0109579 -0.0049498 -2.16013e-19)
(0.0111751 -0.00276993 -4.05073e-19)
(0.0109499 -0.000895771 -4.62449e-19)
(0.0101818 0.000570966 -3.47906e-19)
(0.00878794 0.00161143 -2.04675e-19)
(0.00679042 0.00233523 3.82545e-20)
(0.00431619 0.0028167 2.44274e-19)
(0.00148224 0.00310171 3.45187e-19)
(-0.00159781 0.00321688 6.27023e-19)
(-0.00470656 0.00320426 7.9071e-19)
(-0.00780329 0.00310817 7.20979e-19)
(-0.0108 0.00296352 8.44887e-19)
(-0.0135744 0.00279466 9.23185e-19)
(-0.0158195 0.00261749 1.03862e-18)
(-0.0174795 0.00246519 9.26795e-19)
(-0.0189233 0.00231809 4.68448e-19)
(-0.0201732 0.00216882 1.06495e-19)
(-0.021243 0.0020002 8.14022e-20)
(-0.0221404 0.00178762 2.20478e-19)
(-0.0228638 0.00149781 3.9745e-19)
(-0.0233993 0.0010895 4.47614e-19)
(-0.0237312 0.000510891 3.58856e-19)
(-0.0238732 -0.000291206 3.95975e-19)
(-0.0238776 -0.0013255 4.96932e-19)
(-0.0237819 -0.00255453 2.95599e-19)
(-0.0235756 -0.00397795 2.6369e-19)
(-0.0232492 -0.00559324 1.38786e-19)
(-0.0227977 -0.00739508 2.2833e-19)
(-0.0222186 -0.0093736 3.19678e-19)
(-0.0215062 -0.0114924 3.36136e-19)
(-0.0206886 -0.0137196 4.54291e-19)
(-0.0197977 -0.0160347 4.43253e-19)
(-0.018678 -0.0185561 4.9939e-19)
(0.00132486 -0.0266136 9.67958e-19)
(0.00264235 -0.0239168 9.63852e-19)
(0.00400371 -0.0208913 6.85208e-19)
(0.00533325 -0.0178542 5.00294e-19)
(0.00658054 -0.0147744 3.61212e-19)
(0.00769919 -0.0116393 4.68416e-19)
(0.00864808 -0.00846118 5.13693e-19)
(0.0093779 -0.00528028 2.07532e-22)
(0.009823 -0.00217833 -5.56327e-19)
(0.00989411 0.000708588 -4.65279e-19)
(0.00950812 0.003214 -2.61558e-19)
(0.0085731 0.00526448 -1.34739e-20)
(0.00707072 0.00684852 -1.81574e-20)
(0.00505264 0.00796758 -7.32557e-20)
(0.00257538 0.00862168 4.67527e-19)
(-0.000238399 0.00882478 8.62764e-19)
(-0.00318202 0.00867971 9.52487e-19)
(-0.00616083 0.00830053 8.65786e-19)
(-0.00904679 0.00777939 8.12684e-19)
(-0.0116874 0.00718246 7.8568e-19)
(-0.0137765 0.00658208 7.28612e-19)
(-0.0152724 0.00607227 1.04829e-18)
(-0.0165258 0.00556963 8.22684e-19)
(-0.0175608 0.00504854 4.0435e-19)
(-0.0183973 0.00447046 6.57651e-19)
(-0.0190559 0.00379324 5.7767e-19)
(-0.0195582 0.00297261 1.92364e-19)
(-0.0199296 0.00196744 6.93226e-20)
(-0.0202027 0.000740737 2.42992e-20)
(-0.0204067 -0.000734694 1.07824e-19)
(-0.0205904 -0.00244171 8.09954e-20)
(-0.0207526 -0.00434965 2.4882e-19)
(-0.0209031 -0.00644214 4.08429e-19)
(-0.0210523 -0.00869845 3.09851e-19)
(-0.0212049 -0.0110865 2.59669e-19)
(-0.0213563 -0.01355 2.62685e-19)
(-0.021473 -0.0159827 3.26092e-19)
(-0.021521 -0.0182774 4.89918e-19)
(-0.0214238 -0.0202923 5.04457e-19)
(-0.0211459 -0.0218904 5.88365e-19)
(0.00111154 -0.0345432 1.01762e-18)
(0.00235116 -0.0312481 1.02617e-18)
(0.00369661 -0.0275604 6.35614e-19)
(0.0050594 -0.0238223 4.88536e-19)
(0.00636306 -0.0199818 2.57476e-19)
(0.00755899 -0.0160228 2.24988e-19)
(0.00862059 -0.0119549 3.60995e-19)
(0.00951799 -0.00781193 3.36534e-19)
(0.0102058 -0.00366095 5.54144e-20)
(0.010614 0.000383554 -3.1853e-19)
(0.0106654 0.00415007 -3.32113e-19)
(0.0102565 0.00746599 -1.15076e-19)
(0.00931815 0.0101799 -6.36667e-20)
(0.00783051 0.0121873 1.2917e-19)
(0.00582064 0.0134316 6.45586e-19)
(0.00330372 0.0139149 9.03006e-19)
(0.000511684 0.0137348 1.02134e-18)
(-0.0023936 0.0130939 1.13655e-18)
(-0.0052401 0.0121582 1.10156e-18)
(-0.00783507 0.0110523 9.60637e-19)
(-0.00986182 0.0099368 5.8641e-19)
(-0.0113046 0.00897273 4.68607e-19)
(-0.0125035 0.00799778 6.15269e-19)
(-0.0134959 0.00697477 5.97166e-19)
(-0.0143213 0.00585823 5.22977e-19)
(-0.0150214 0.00460503 2.34631e-19)
(-0.0156387 0.00318009 3.29888e-20)
(-0.0162124 0.00156269 1.07079e-19)
(-0.0167696 -0.000254447 4.79226e-20)
(-0.0173476 -0.00226005 -9.18327e-20)
(-0.0179731 -0.00443813 1.80461e-19)
(-0.0186585 -0.00677695 3.13622e-19)
(-0.0194156 -0.00925826 1.87968e-19)
(-0.0202453 -0.0118522 1.2392e-19)
(-0.0211337 -0.0145109 1.27888e-19)
(-0.0220384 -0.0171546 2.81206e-19)
(-0.022884 -0.0196748 3.11624e-19)
(-0.0235904 -0.0219669 2.45048e-19)
(-0.0240474 -0.0238911 5.41417e-19)
(-0.0241698 -0.0253384 5.69025e-19)
(0.00113604 -0.0412307 1.07515e-18)
(0.00241342 -0.0374249 1.06037e-18)
(0.0037997 -0.0331425 9.02234e-19)
(0.0052039 -0.0288088 5.30847e-19)
(0.00657095 -0.0243524 1.45593e-19)
(0.00786465 -0.0197441 -4.10225e-19)
(0.00906906 -0.0149855 -2.55644e-19)
(0.0101663 -0.0101026 -2.37496e-19)
(0.0111267 -0.00515268 2.29539e-20)
(0.0118997 -0.000239273 4.14751e-19)
(0.0124107 0.00446224 -2.88152e-19)
(0.0125688 0.00876582 -9.63036e-20)
(0.0122648 0.0124666 5.11544e-19)
(0.0114088 0.0153672 1.00593e-18)
(0.00995285 0.0173194 1.06197e-18)
(0.00790222 0.0182503 9.77097e-19)
(0.00529045 0.0181886 6.89269e-19)
(0.00239616 0.0173206 7.80732e-19)
(-0.000530433 0.0159281 1.12641e-18)
(-0.00323839 0.014229 9.77523e-19)
(-0.00534273 0.0125353 7.91981e-19)
(-0.00684869 0.0110838 6.24515e-19)
(-0.00810853 0.00963535 4.76105e-19)
(-0.00917616 0.00815408 5.04302e-19)
(-0.0101079 0.00659761 6.24306e-19)
(-0.0109594 0.00492855 2.5376e-19)
(-0.0117813 0.00312134 2.17483e-20)
(-0.0126139 0.00116479 5.36538e-20)
(-0.0134813 -0.000941543 -8.12454e-20)
(-0.014424 -0.00318828 -1.50985e-19)
(-0.0154528 -0.00556888 -1.22686e-19)
(-0.0165815 -0.00807313 -1.86768e-19)
(-0.0178152 -0.0106845 -1.88651e-19)
(-0.0191459 -0.0133768 -7.73522e-21)
(-0.0205456 -0.0161071 4.18244e-20)
(-0.0219567 -0.0188078 1.09793e-19)
(-0.0232909 -0.0213845 1.80157e-19)
(-0.0244347 -0.0237155 1.16252e-19)
(-0.0252318 -0.0256245 1.23602e-19)
(-0.0255597 -0.0269688 1.72443e-19)
(0.00112627 -0.0482293 1.20239e-18)
(0.00244964 -0.0440437 9.36871e-19)
(0.00390184 -0.0392603 1.3477e-18)
(0.0053886 -0.0344109 1.39956e-18)
(0.00686488 -0.0294156 1.20314e-18)
(0.00829845 -0.0242394 4.0232e-19)
(0.00967845 -0.0188803 -2.44718e-19)
(0.0109944 -0.0133602 -1.18003e-19)
(0.0122275 -0.00772713 -1.49289e-19)
(0.0133436 -0.00206635 -5.41338e-20)
(0.0142701 0.00347967 -3.60063e-20)
(0.0149319 0.00869423 1.96111e-19)
(0.0152125 0.013358 6.67911e-19)
(0.0149842 0.0172183 1.13209e-18)
(0.0141302 0.0200355 1.04967e-18)
(0.0125811 0.0216361 6.17741e-19)
(0.0103432 0.0219557 4.20404e-19)
(0.00749606 0.0210587 3.67921e-19)
(0.00437737 0.0192349 6.66624e-19)
(0.00140033 0.0168967 6.35782e-19)
(-0.000928062 0.0145978 5.11823e-19)
(-0.002618 0.012651 6.31055e-19)
(-0.00404577 0.0107512 6.68626e-19)
(-0.00527602 0.00886923 4.85389e-19)
(-0.00637738 0.00696482 3.85247e-19)
(-0.00741453 0.00500109 3.21234e-19)
(-0.00844239 0.00295195 2.48036e-19)
(-0.00950251 0.000804657 2.32963e-19)
(-0.0106211 -0.00144108 1.98051e-20)
(-0.0118293 -0.00378188 -1.4514e-19)
(-0.013142 -0.00621799 -1.9069e-19)
(-0.0145737 -0.00874795 -9.79646e-20)
(-0.0161302 -0.0113673 -1.38855e-20)
(-0.0178045 -0.0140644 1.43491e-19)
(-0.0195716 -0.0168142 3.45495e-19)
(-0.0213782 -0.0195671 2.87179e-19)
(-0.023131 -0.0222337 2.94667e-19)
(-0.0246908 -0.0246752 2.24229e-19)
(-0.0258484 -0.0266685 5.15223e-20)
(-0.026436 -0.0280282 3.79238e-20)
(0.00110801 -0.0553518 1.34927e-18)
(0.00247027 -0.0508683 1.09768e-18)
(0.00396974 -0.0456393 9.64438e-19)
(0.00551355 -0.0403273 1.32042e-18)
(0.00706745 -0.0348501 1.74449e-18)
(0.00860292 -0.0291702 1.74682e-18)
(0.0101128 -0.0232839 8.89402e-19)
(0.0115916 -0.0172104 3.32011e-20)
(0.0130285 -0.0109907 -1.88332e-19)
(0.0144022 -0.00469427 -1.51334e-19)
(0.0156603 0.00156699 8.76451e-20)
(0.0167275 0.00756063 2.78502e-19)
(0.0174974 0.0130804 5.58456e-19)
(0.0178344 0.0178584 5.37006e-19)
(0.017582 0.0215944 1.97137e-19)
(0.0165972 0.0240098 -3.4211e-19)
(0.0148028 0.024917 -3.13759e-19)
(0.0122293 0.0242791 1.84169e-19)
(0.00903231 0.0222391 4.42382e-19)
(0.00568341 0.0192501 4.0455e-19)
(0.00304514 0.0163364 2.16139e-19)
(0.00110091 0.0138924 1.72276e-19)
(-0.000547856 0.0115615 3.23826e-19)
(-0.00196744 0.00932725 4.8667e-19)
(-0.00323358 0.00715098 3.91293e-19)
(-0.0044192 0.00499142 3.46902e-19)
(-0.0055874 0.00281447 3.2393e-19)
(-0.00678696 0.000598333 1.54058e-19)
(-0.0080502 -0.00166429 3.98964e-20)
(-0.0094052 -0.00397774 3.90784e-21)
(-0.010873 -0.00635238 1.27661e-19)
(-0.0124732 -0.00880103 2.03284e-19)
(-0.0142182 -0.0113359 1.15657e-19)
(-0.0161096 -0.013964 2.74086e-19)
(-0.018132 -0.0166797 2.83161e-19)
(-0.020242 -0.019452 2.78614e-19)
(-0.0223487 -0.0222028 2.29195e-19)
(-0.0242978 -0.0247892 3.27634e-19)
(-0.0258165 -0.0269298 5.16396e-19)
(-0.0266711 -0.0283728 2.64864e-19)
(0.0010633 -0.0624906 1.40417e-18)
(0.0024304 -0.0577763 1.13266e-18)
(0.00393323 -0.0521607 9.5696e-19)
(0.00548613 -0.0464404 8.21281e-19)
(0.00706424 -0.0405346 1.1925e-18)
(0.00864183 -0.0344057 1.26392e-18)
(0.010214 -0.0280514 1.07762e-18)
(0.0117788 -0.0214917 1.01437e-18)
(0.0133306 -0.0147654 7.33452e-19)
(0.0148569 -0.00793421 1.03388e-19)
(0.0163305 -0.00109544 -3.29159e-19)
(0.017677 0.0055902 7.21099e-20)
(0.0188069 0.0118733 -6.93081e-20)
(0.0195923 0.0174918 -3.97899e-19)
(0.0198669 0.0221207 -5.5838e-19)
(0.0194437 0.0254059 -3.57584e-19)
(0.0181642 0.0270343 -3.53291e-19)
(0.0159668 0.0268295 -5.25143e-19)
(0.0129483 0.0248452 -1.15593e-20)
(0.00940182 0.0214031 -1.16591e-19)
(0.00642881 0.0178594 1.09006e-19)
(0.00422049 0.0149133 1.74991e-19)
(0.00234642 0.0121579 3.05338e-19)
(0.00074652 0.00959429 3.21174e-19)
(-0.000656755 0.00718622 3.07342e-19)
(-0.00194144 0.0048879 1.47892e-19)
(-0.00317806 0.00265604 1.44799e-19)
(-0.0044253 0.000455356 1.19938e-19)
(-0.00572463 -0.00173379 1.19863e-19)
(-0.0071085 -0.00392736 1.2391e-19)
(-0.0086069 -0.00615009 6.80577e-20)
(-0.0102494 -0.00843192 -1.60867e-20)
(-0.0120605 -0.0108039 3.76461e-20)
(-0.0140558 -0.0132938 1.61993e-19)
(-0.0162365 -0.0159188 2.17619e-19)
(-0.0185758 -0.018672 1.59795e-19)
(-0.0209971 -0.0214994 2.82675e-19)
(-0.0233427 -0.0242653 2.64648e-19)
(-0.0252664 -0.0266196 2.42857e-19)
(-0.0264444 -0.0282195 1.80977e-19)
(0.000995895 -0.0694578 1.55071e-18)
(0.00232852 -0.0645427 1.42769e-18)
(0.00378665 -0.0585806 1.05925e-18)
(0.00529629 -0.0524888 5.01632e-19)
(0.00683989 -0.0461886 1.66937e-19)
(0.0083935 -0.0396448 1.14547e-18)
(0.00995341 -0.0328598 1.4819e-18)
(0.0115199 -0.0258577 1.10665e-18)
(0.013091 -0.0186787 5.759e-19)
(0.0146607 -0.0113798 7.51964e-19)
(0.0162145 -0.00404311 8.20689e-19)
(0.0177097 0.00320902 1.501e-19)
(0.0190579 0.0101274 -4.07095e-19)
(0.0201524 0.0164602 -2.71856e-19)
(0.0208349 0.0218763 7.5705e-20)
(0.0209048 0.0259767 -1.4927e-19)
(0.0201512 0.0283468 -2.58503e-19)
(0.0184231 0.028664 -5.27343e-19)
(0.015724 0.02685 -4.0405e-19)
(0.0122914 0.0232054 -4.17357e-19)
(0.00916058 0.0191613 -9.34216e-20)
(0.00673043 0.0157095 7.66742e-20)
(0.00466758 0.0125403 1.80871e-19)
(0.00292174 0.00966603 2.1861e-19)
(0.00141872 0.00705436 2.37802e-19)
(8.03258e-05 0.00465488 1.8657e-19)
(-0.00116592 0.00241626 1.44856e-19)
(-0.00238539 0.000289767 1.08124e-19)
(-0.00362847 -0.00175997 6.58086e-20)
(-0.00493635 -0.00376312 3.74815e-20)
(-0.0063499 -0.00576021 1.087e-20)
(-0.00791169 -0.00779782 -6.96966e-20)
(-0.00966238 -0.00992568 4.33722e-20)
(-0.0116382 -0.0121938 1.62961e-19)
(-0.0138646 -0.0146469 1.04606e-19)
(-0.0163432 -0.0173116 1.66673e-19)
(-0.0190263 -0.0201724 8.49143e-20)
(-0.0217666 -0.0231157 1.67763e-19)
(-0.0241437 -0.025726 1.0906e-19)
(-0.0257182 -0.0275443 2.09325e-19)
(0.000912162 -0.0760925 1.50682e-18)
(0.0021734 -0.0709758 1.81977e-18)
(0.0035445 -0.0646873 1.36311e-18)
(0.00496564 -0.0582403 1.28734e-18)
(0.00642391 -0.0515573 5.81148e-19)
(0.00789606 -0.0446089 4.32849e-19)
(0.0093784 -0.0374063 8.31486e-19)
(0.0108721 -0.0299824 6.28426e-19)
(0.0123774 -0.0223843 4.53883e-19)
(0.013893 -0.0146708 1.85501e-19)
(0.0154143 -0.00691622 1.19486e-19)
(0.0169283 0.00077871 -1.15251e-19)
(0.0183563 0.00820499 -7.43019e-20)
(0.0196148 0.0151111 1.39935e-19)
(0.0205661 0.0211644 3.43371e-20)
(0.0210187 0.0259409 -3.96087e-19)
(0.0207421 0.0289557 -4.86626e-19)
(0.0195219 0.0297644 -4.02927e-19)
(0.0172669 0.0281576 -5.68941e-19)
(0.0141352 0.0243884 -4.74795e-19)
(0.0111236 0.0200551 -2.62841e-19)
(0.00865676 0.0162399 -1.56116e-19)
(0.0064762 0.0126773 -1.81778e-19)
(0.00463688 0.00952695 -4.0428e-20)
(0.00307497 0.00674636 -9.4637e-21)
(0.00172034 0.00427688 -1.15748e-21)
(0.00050347 0.00205841 1.09184e-21)
(-0.00064082 3.19295e-05 1.77009e-20)
(-0.00176879 -0.00184933 5.28916e-21)
(-0.00292553 -0.00362605 -1.9907e-20)
(-0.00416235 -0.00535192 -5.66119e-20)
(-0.0055334 -0.00708506 4.45302e-21)
(-0.00709643 -0.00888983 -1.34533e-20)
(-0.0089125 -0.0108382 1.28145e-20)
(-0.0110413 -0.0130071 1.08812e-19)
(-0.0135279 -0.0154688 2.04892e-19)
(-0.0163748 -0.0182643 2.01134e-19)
(-0.0194693 -0.0213267 1.80069e-20)
(-0.0223406 -0.0242044 -1.31376e-20)
(-0.0243973 -0.0262718 1.10116e-19)
(0.00082448 -0.0822581 1.49806e-18)
(0.00199236 -0.0769242 1.45098e-18)
(0.00324823 -0.0703178 1.38782e-18)
(0.00454704 -0.063517 1.32362e-18)
(0.00587945 -0.0564439 1.78632e-18)
(0.00722287 -0.0490785 1.17856e-18)
(0.00857303 -0.0414445 1.05779e-18)
(0.00993082 -0.0335881 6.4057e-19)
(0.0112978 -0.0255686 2.08922e-20)
(0.0126766 -0.017454 -4.32158e-19)
(0.0140708 -0.0093229 -2.89152e-19)
(0.0154809 -0.0012768 7.16646e-20)
(0.0168733 0.00653191 -2.36887e-19)
(0.0181649 0.0138372 -7.39622e-19)
(0.0192517 0.020313 -9.89581e-19)
(0.0199695 0.0255291 -1.08148e-18)
(0.0200962 0.0289646 -1.02992e-18)
(0.0193852 0.0300981 -7.56297e-19)
(0.0176674 0.0286279 -4.91397e-19)
(0.0150077 0.0247716 -1.66573e-19)
(0.012283 0.0202339 -2.15286e-19)
(0.00994306 0.0161815 -6.59155e-20)
(0.00781494 0.012414 -3.61957e-20)
(0.00596186 0.00907365 -8.24241e-20)
(0.00437867 0.00616836 -1.68581e-19)
(0.00302545 0.00365528 -1.72462e-19)
(0.00184974 0.00147466 -1.17783e-19)
(0.000801277 -0.00043449 -1.16206e-19)
(-0.000179563 -0.00212864 -1.14594e-19)
(-0.00114323 -0.00366296 -5.54501e-20)
(-0.0021462 -0.00509305 -6.35749e-20)
(-0.00324822 -0.00647816 -1.79251e-20)
(-0.00451674 -0.00788814 7.98782e-20)
(-0.00603099 -0.00940953 1.26285e-19)
(-0.00788379 -0.0111498 1.01565e-19)
(-0.0101753 -0.0132348 1.05169e-19)
(-0.0129865 -0.0157842 1.24635e-19)
(-0.0162813 -0.0188066 8.02159e-20)
(-0.0196205 -0.0218903 2.17467e-20)
(-0.0221663 -0.0240976 7.87731e-20)
(0.0007294 -0.0877588 1.48219e-18)
(0.00178182 -0.0821861 1.63511e-18)
(0.00290613 -0.075264 1.45929e-18)
(0.00406834 -0.068106 1.53154e-18)
(0.00525921 -0.0606337 9.79818e-19)
(0.00645565 -0.0528425 1.03028e-18)
(0.00765154 -0.0447759 9.82888e-19)
(0.00884509 -0.0365009 1.59345e-18)
(0.0100347 -0.0280972 1.00025e-18)
(0.0112194 -0.0196518 -7.07635e-20)
(0.0124 -0.0112549 -4.73725e-19)
(0.0135815 -0.00299703 -4.32757e-19)
(0.014768 0.00503364 -5.73504e-19)
(0.0159378 0.0125888 -8.4352e-19)
(0.0170371 0.0193096 -8.07276e-19)
(0.0179375 0.0247553 -6.95856e-19)
(0.0184298 0.0283956 -5.47915e-20)
(0.0182432 0.0296884 -7.86888e-20)
(0.017133 0.028311 -1.71173e-19)
(0.0150558 0.0244949 -2.25233e-19)
(0.0127374 0.0199879 -1.85984e-19)
(0.0106451 0.0159265 -2.37677e-19)
(0.00867445 0.0121293 -1.76145e-19)
(0.00691928 0.00874853 -2.41001e-19)
(0.00540991 0.0058108 -2.73411e-19)
(0.00413413 0.00328287 -2.21936e-19)
(0.00305821 0.00110856 -1.90253e-19)
(0.00213081 -0.000773338 -1.77424e-19)
(0.00130034 -0.00237538 -1.30526e-19)
(0.000535122 -0.00373215 -6.6564e-20)
(-0.000217442 -0.0048981 -8.61388e-20)
(-0.00101912 -0.00593938 -1.17942e-19)
(-0.00194118 -0.00693567 -9.16448e-20)
(-0.00307175 -0.00798758 6.74354e-21)
(-0.00452341 -0.00922535 4.67805e-20)
(-0.00643496 -0.0108113 8.44319e-20)
(-0.00895044 -0.0129163 9.72558e-20)
(-0.0121054 -0.0155935 5.43473e-20)
(-0.0156357 -0.01858 5.67219e-20)
(-0.0183948 -0.020402 9.79835e-20)
(0.00062354 -0.0924736 1.44099e-18)
(0.00151954 -0.0866089 1.56105e-18)
(0.00247624 -0.0792911 1.3553e-18)
(0.00347112 -0.0716713 1.71804e-18)
(0.00448447 -0.0636725 1.14535e-18)
(0.0054901 -0.0553114 1.61267e-18)
(0.00648284 -0.0466546 1.32948e-18)
(0.00746513 -0.0377893 1.42172e-18)
(0.00844272 -0.028812 1.46365e-18)
(0.00942601 -0.0198238 8.11443e-19)
(0.010429 -0.0109308 4.64282e-19)
(0.0114617 -0.00227332 3.15901e-19)
(0.0125037 0.00588062 9.0769e-20)
(0.0135669 0.0132563 -3.12657e-19)
(0.0146642 0.0195922 -4.60323e-19)
(0.0157075 0.0245184 -1.8151e-19)
(0.0165094 0.0275609 -4.51687e-19)
(0.0167993 0.0282472 -5.10411e-19)
(0.0163023 0.0263561 -4.36425e-19)
(0.0148971 0.0222169 -4.7922e-19)
(0.013017 0.0176035 -1.45897e-19)
(0.0111255 0.0134828 -3.42509e-19)
(0.00926051 0.00967237 -4.64155e-19)
(0.00755071 0.00630123 -2.7308e-19)
(0.00605182 0.00339464 -1.2833e-19)
(0.00478368 0.000940583 -4.45766e-20)
(0.00376246 -0.00106816 -2.27391e-19)
(0.00299022 -0.00264183 -4.67658e-19)
(0.00240023 -0.00386427 -4.91688e-19)
(0.00191093 -0.00480896 -3.8015e-19)
(0.00145631 -0.00554449 -2.16233e-19)
(0.000980458 -0.00614046 -1.85759e-19)
(0.000421108 -0.00667527 -1.39116e-19)
(-0.000300543 -0.00724843 -5.33392e-20)
(-0.00128065 -0.00798531 3.88619e-21)
(-0.00263033 -0.00902512 -4.7367e-20)
(-0.00446762 -0.0104845 5.41455e-20)
(-0.0068963 -0.0123728 1.05842e-19)
(-0.0100219 -0.0143973 1.69435e-19)
(-0.0128159 -0.0148822 1.63693e-19)
(0.000648871 -0.0968806 1.6495e-18)
(0.00153026 -0.0908189 1.61735e-18)
(0.00237474 -0.0832045 1.64288e-18)
(0.00319114 -0.0752793 1.28294e-18)
(0.00395439 -0.0669504 2.16789e-18)
(0.00465207 -0.0582556 1.57317e-18)
(0.00528923 -0.0492909 1.53353e-18)
(0.00587771 -0.0401678 1.1136e-18)
(0.00643426 -0.031011 9.63928e-19)
(0.00698755 -0.0219509 6.88934e-19)
(0.00757826 -0.0131068 5.42307e-19)
(0.00824891 -0.00459048 6.57753e-19)
(0.00908584 0.00346736 6.96743e-19)
(0.00999532 0.0106273 4.80542e-20)
(0.0109747 0.0167627 -4.11507e-19)
(0.011998 0.021627 -5.55522e-19)
(0.0129987 0.0248652 -1.10458e-18)
(0.0138386 0.0261079 -8.00049e-19)
(0.0143033 0.0251594 -5.26372e-19)
(0.0141549 0.0222223 5.25307e-20)
(0.0135059 0.0186902 -5.22198e-20)
(0.012651 0.0151308 -5.84619e-19)
(0.0116259 0.0116175 -3.9163e-19)
(0.010491 0.00831996 -8.98642e-20)
(0.0093186 0.00532613 -7.79057e-20)
(0.00816471 0.00267005 -1.46803e-19)
(0.00705084 0.000358758 -3.65907e-19)
(0.00597396 -0.00158297 -5.31664e-19)
(0.00497943 -0.00309073 -5.59758e-19)
(0.0040717 -0.00417824 -5.34061e-19)
(0.00323711 -0.00494858 -5.06487e-19)
(0.00245523 -0.0055062 -3.83138e-19)
(0.00172096 -0.00594283 -1.96498e-19)
(0.00101549 -0.00638866 -7.20529e-20)
(0.000324596 -0.00697288 -2.61082e-21)
(-0.000408877 -0.00772235 4.30037e-20)
(-0.00137692 -0.00848145 9.75959e-20)
(-0.00296327 -0.00895884 1.03353e-19)
(-0.0054384 -0.00866125 1.889e-19)
(-0.00796153 -0.00724679 2.15554e-19)
(0.000437154 -0.100212 1.66686e-18)
(0.00102882 -0.0944673 1.92558e-18)
(0.00164158 -0.0870716 2.01314e-18)
(0.00225813 -0.0793701 1.47875e-18)
(0.00284906 -0.0712658 1.98839e-18)
(0.00340285 -0.0627815 1.16681e-18)
(0.00391879 -0.0540278 9.74363e-19)
(0.00439937 -0.0451051 8.63708e-19)
(0.00484668 -0.0361383 3.09837e-19)
(0.0052724 -0.0272826 1.14591e-19)
(0.00570294 -0.0186731 4.88498e-19)
(0.0061754 -0.0104207 2.69893e-19)
(0.00674629 -0.00257159 -9.36428e-20)
(0.00747156 0.00487687 -2.24618e-19)
(0.00826763 0.0114476 -2.36351e-19)
(0.0091846 0.0168951 -6.20196e-19)
(0.0102112 0.0209412 -7.59816e-19)
(0.0112783 0.0232885 -3.34534e-19)
(0.0122444 0.0237381 -1.61226e-19)
(0.012897 0.0223698 2.12038e-20)
(0.0130653 0.020139 -5.01372e-19)
(0.0129448 0.0175964 -6.30113e-19)
(0.0125776 0.0148468 -4.07672e-19)
(0.0120007 0.0120927 -4.72889e-19)
(0.0112561 0.00947382 -6.80751e-19)
(0.0103777 0.00707764 -5.17902e-19)
(0.00938693 0.00494652 -4.11194e-19)
(0.00829702 0.00308342 -3.87021e-19)
(0.00710976 0.00146765 -5.86633e-19)
(0.00582479 0.000129822 -6.88724e-19)
(0.00442959 -0.000855057 -7.2407e-19)
(0.00288488 -0.00144938 -6.02509e-19)
(0.00111204 -0.00163794 -4.17393e-19)
(-0.000998182 -0.00142137 -2.44555e-19)
(-0.00346784 -0.000916832 -8.90579e-20)
(-0.00633183 -0.000414094 -3.52956e-20)
(-0.00940543 -0.000353305 -1.44788e-20)
(-0.0123707 -0.000934233 6.3223e-20)
(-0.0150807 -0.00177552 1.15292e-19)
(-0.0176222 -0.00237204 1.28879e-19)
(0.000358587 -0.102733 1.59824e-18)
(0.000825091 -0.0972356 1.92624e-18)
(0.00130335 -0.0899652 2.20577e-18)
(0.00178281 -0.0823693 1.64872e-18)
(0.00223645 -0.0743686 1.24058e-18)
(0.00265623 -0.0659969 1.71317e-18)
(0.0030427 -0.0573333 1.81582e-18)
(0.00339648 -0.0484721 1.55303e-18)
(0.00372199 -0.0395041 1.17516e-18)
(0.00402204 -0.0306515 8.73397e-19)
(0.00430159 -0.0220534 6.99277e-19)
(0.00457801 -0.0138699 5.31551e-19)
(0.00489655 -0.00619876 3.70355e-19)
(0.00535562 0.000937293 2.52008e-19)
(0.0059868 0.00733922 1.53651e-19)
(0.00679581 0.0127888 -1.32181e-19)
(0.00779303 0.0170788 -2.85507e-19)
(0.00893614 0.0199707 -2.75954e-19)
(0.0101226 0.0212749 -2.32055e-19)
(0.0111835 0.0209833 -3.36304e-20)
(0.011835 0.0196654 -2.58395e-19)
(0.0122158 0.0179077 -5.15726e-19)
(0.0123715 0.0158237 -7.36613e-19)
(0.0123256 0.0135988 -9.03592e-19)
(0.0121067 0.0113762 -8.55235e-19)
(0.0117463 0.00926048 -7.27812e-19)
(0.0112751 0.00732606 -7.35794e-19)
(0.0107194 0.00562438 -6.57997e-19)
(0.0100967 0.00418949 -6.80316e-19)
(0.00941654 0.00304643 -6.94182e-19)
(0.00868389 0.0022239 -7.12937e-19)
(0.00790111 0.00175664 -7.33913e-19)
(0.00707374 0.00167384 -6.03286e-19)
(0.00622294 0.00198499 -4.28128e-19)
(0.00538068 0.00265987 -3.50176e-19)
(0.00456031 0.00359072 -3.05272e-19)
(0.00376246 0.00457137 -3.27597e-19)
(0.00298206 0.00535851 -2.61368e-19)
(0.00220926 0.0057908 -2.06803e-19)
(0.00145197 0.00580867 -1.81358e-19)
(0.000293908 -0.104858 1.55517e-18)
(0.000666511 -0.099617 1.69981e-18)
(0.00104399 -0.0925055 1.60958e-18)
(0.00142308 -0.085056 1.61763e-18)
(0.0017776 -0.0771973 1.70704e-18)
(0.00209932 -0.0689613 2.14071e-18)
(0.00238799 -0.0604252 2.3188e-18)
(0.0026459 -0.0516885 1.66387e-18)
(0.00287965 -0.042865 1.10745e-18)
(0.00309338 -0.0340792 1.23009e-18)
(0.00328989 -0.0254435 5.8201e-19)
(0.00347497 -0.0172421 7.35158e-19)
(0.00366847 -0.00961128 6.14503e-19)
(0.00392562 -0.00263829 3.39131e-19)
(0.00434991 0.00365026 1.86058e-19)
(0.00496546 0.00901038 -5.00773e-20)
(0.0058168 0.0133267 -4.53762e-19)
(0.00689594 0.0164543 -3.81827e-19)
(0.00813411 0.0182599 1.69435e-19)
(0.00940315 0.0187169 -1.16358e-20)
(0.0103588 0.0181207 -6.8848e-19)
(0.0110776 0.0170409 -1.19341e-18)
(0.0116135 0.0155949 -1.27976e-18)
(0.011974 0.0139356 -1.09416e-18)
(0.012168 0.0121858 -7.99315e-19)
(0.01221 0.0104395 -9.32744e-19)
(0.0121185 0.00876593 -8.51601e-19)
(0.0119142 0.00721447 -6.45052e-19)
(0.0116177 0.00581921 -7.17554e-19)
(0.0112483 0.00460526 -8.51294e-19)
(0.0108249 0.00359525 -7.93143e-19)
(0.0103667 0.00281374 -5.5776e-19)
(0.00989288 0.00228912 -5.69198e-19)
(0.00942437 0.0020486 -5.37293e-19)
(0.00898641 0.0021009 -5.13813e-19)
(0.00860538 0.0024172 -4.53152e-19)
(0.00830136 0.00291952 -4.08261e-19)
(0.00807782 0.00349707 -3.07287e-19)
(0.00791821 0.00404614 -3.12774e-19)
(0.00779296 0.00449025 -3.23208e-19)
(0.00024555 -0.10666 1.53664e-18)
(0.000548037 -0.101652 1.64332e-18)
(0.000846106 -0.0946963 1.43849e-18)
(0.0011442 -0.0873978 1.66379e-18)
(0.00141802 -0.0796915 1.53818e-18)
(0.00166178 -0.0716055 1.16928e-18)
(0.00187613 -0.0632101 1.56751e-18)
(0.00206273 -0.0545979 1.59257e-18)
(0.00222418 -0.045879 1.41555e-18)
(0.00236536 -0.0371815 1.10326e-18)
(0.00249679 -0.028645 8.47428e-19)
(0.00262729 -0.0204138 6.21867e-19)
(0.00276316 -0.0127082 5.68681e-19)
(0.00292724 -0.00575332 2.5956e-19)
(0.00319506 0.000397835 5.58687e-20)
(0.00364255 0.00563303 -3.89113e-19)
(0.00432007 0.00985326 -4.70883e-19)
(0.00526345 0.0130149 -3.6086e-19)
(0.00644476 0.0150607 -6.90901e-19)
(0.00777812 0.0159801 -7.13312e-19)
(0.00889943 0.0158903 -8.02463e-19)
(0.00982314 0.0153184 -1.28517e-18)
(0.0106162 0.0143866 -1.4608e-18)
(0.0112769 0.0132179 -1.10938e-18)
(0.0118022 0.0119135 -9.06348e-19)
(0.0121945 0.0105555 -9.72502e-19)
(0.0124623 0.00920859 -1.05329e-18)
(0.0126173 0.00792207 -8.26972e-19)
(0.0126728 0.00673267 -5.28733e-19)
(0.0126423 0.00566703 -6.56914e-19)
(0.0125393 0.00474447 -9.3203e-19)
(0.0123775 0.00397926 -8.11751e-19)
(0.0121722 0.00338267 -5.91141e-19)
(0.0119404 0.00296408 -4.76342e-19)
(0.0117012 0.00272968 -5.79947e-19)
(0.0114747 0.00267772 -6.35811e-19)
(0.0112794 0.00279181 -5.47643e-19)
(0.0111271 0.00303805 -5.87246e-19)
(0.0110191 0.00337068 -5.39151e-19)
(0.0109439 0.00373987 -4.88047e-19)
(0.000205879 -0.108212 1.52635e-18)
(0.000450488 -0.103408 1.84017e-18)
(0.000681342 -0.0966042 1.97332e-18)
(0.000909407 -0.0894587 2.18289e-18)
(0.00111188 -0.0819132 1.88469e-18)
(0.0012851 -0.0739926 1.52892e-18)
(0.00143127 -0.0657614 1.92931e-18)
(0.00155373 -0.0573037 2.40115e-18)
(0.00165628 -0.0487192 2.91309e-18)
(0.00174339 -0.0401254 2.13312e-18)
(0.00182164 -0.0316613 1.29092e-18)
(0.0019023 -0.0234879 5.82631e-19)
(0.00199928 -0.0157734 2.3574e-19)
(0.00212934 -0.00870227 1.289e-19)
(0.00232398 -0.00256431 -1.27529e-19)
(0.00265972 0.00261413 -1.80828e-19)
(0.00319552 0.00671956 -1.21388e-19)
(0.00399404 0.00979772 -5.63561e-19)
(0.00506763 0.011885 -6.89404e-19)
(0.00636954 0.0130183 -4.19462e-19)
(0.00754956 0.0132288 -1.05306e-18)
(0.00857151 0.0129897 -1.34692e-18)
(0.00951208 0.0124247 -8.99654e-19)
(0.010363 0.0116303 -7.54076e-19)
(0.0111131 0.010686 -1.1007e-18)
(0.0117566 0.00965827 -9.4488e-19)
(0.0122939 0.00860128 -6.07381e-19)
(0.0127296 0.00755844 -8.03491e-19)
(0.0130707 0.00656358 -7.89855e-19)
(0.0133258 0.00564252 -8.01344e-19)
(0.013504 0.00481449 -1.03381e-18)
(0.0136148 0.00409348 -7.56194e-19)
(0.0136681 0.00348923 -7.05633e-19)
(0.0136745 0.00300801 -6.2856e-19)
(0.0136455 0.00265315 -5.4992e-19)
(0.0135929 0.00242497 -5.41027e-19)
(0.0135285 0.00232027 -6.76109e-19)
(0.0134622 0.00233173 -6.90543e-19)
(0.0133989 0.0024485 -5.91452e-19)
(0.0133345 0.00265796 -5.14169e-19)
(0.000171809 -0.109544 1.56223e-18)
(0.000365477 -0.104914 1.87189e-18)
(0.000536536 -0.0982504 2.09959e-18)
(0.000700626 -0.091252 2.63284e-18)
(0.000835993 -0.0838659 2.40682e-18)
(0.000940434 -0.0761152 2.70587e-18)
(0.00101718 -0.0680604 2.68597e-18)
(0.00107122 -0.0597792 2.51641e-18)
(0.00110874 -0.0513615 2.76444e-18)
(0.00113678 -0.0429115 2.02092e-18)
(0.00116293 -0.0345541 1.20418e-18)
(0.00119634 -0.0264415 9.43299e-19)
(0.0012507 -0.0187556 4.63592e-19)
(0.00134718 -0.0116903 3.42459e-19)
(0.00151395 -0.00540586 3.32286e-19)
(0.00179906 -0.000208302 2.47335e-19)
(0.00225915 0.00386324 -7.7594e-20)
(0.00294396 0.00683522 -3.88124e-19)
(0.00390578 0.00885142 -2.51964e-19)
(0.00513124 0.0100223 -3.82639e-19)
(0.00630176 0.0103699 -7.67925e-19)
(0.00734754 0.0103174 -6.93428e-19)
(0.00835168 0.00998617 -5.51559e-19)
(0.00930226 0.00945186 -6.80939e-19)
(0.0101844 0.00877618 -5.86749e-19)
(0.010988 0.00801105 -6.78646e-19)
(0.0117084 0.00720018 -7.42972e-19)
(0.0123447 0.00637978 -8.76151e-19)
(0.0128988 0.00557931 -9.24327e-19)
(0.0133743 0.00482225 -9.65773e-19)
(0.0137756 0.00412691 -1.02177e-18)
(0.0141076 0.00350707 -1.14131e-18)
(0.0143757 0.0029724 -8.40095e-19)
(0.0145856 0.00252884 -4.19874e-19)
(0.0147433 0.00217909 -4.70477e-19)
(0.0148556 0.00192312 -5.49897e-19)
(0.014929 0.00175885 -5.38242e-19)
(0.01497 0.00168313 -5.54903e-19)
(0.014983 0.00169361 -5.4776e-19)
(0.0149662 0.00179191 -4.65139e-19)
(0.000141151 -0.110672 1.5267e-18)
(0.000287265 -0.106182 1.83192e-18)
(0.000403069 -0.0996427 1.91759e-18)
(0.00050657 -0.0927793 1.79323e-18)
(0.000576676 -0.0855426 1.97881e-18)
(0.000611908 -0.0779551 2.24228e-18)
(0.000615703 -0.0700756 1.89877e-18)
(0.000593733 -0.0619781 1.76091e-18)
(0.000553768 -0.0537461 1.76413e-18)
(0.000505472 -0.0454732 2.00844e-18)
(0.000459784 -0.0372682 1.66534e-18)
(0.000428403 -0.0292642 1.55824e-18)
(0.000424601 -0.0216291 1.36593e-18)
(0.000467323 -0.0145682 1.16422e-18)
(0.000589691 -0.00830051 1.06172e-18)
(0.00083775 -0.00299373 6.61385e-19)
(0.00126909 0.00115838 2.13744e-19)
(0.0018948 0.00408744 -7.79508e-20)
(0.00276628 0.00600559 -8.07015e-20)
(0.00390177 0.00711872 -1.89462e-19)
(0.00502083 0.00749285 -2.9769e-19)
(0.00603709 0.00751936 -3.14605e-19)
(0.00703701 0.0073144 -3.50285e-19)
(0.0080073 0.00693886 -3.66872e-19)
(0.00893285 0.00644033 -4.37885e-19)
(0.0098024 0.00585878 -5.60659e-19)
(0.010609 0.00522842 -7.12e-19)
(0.0113491 0.0045783 -6.99071e-19)
(0.0120213 0.00393272 -6.29381e-19)
(0.0126259 0.00331179 -7.27595e-19)
(0.0131642 0.00273196 -5.41303e-19)
(0.0136379 0.00220688 -4.5361e-19)
(0.0140491 0.00174771 -7.15229e-19)
(0.0144 0.0013624 -6.85963e-19)
(0.0146929 0.00105539 -5.95604e-19)
(0.014931 0.000828266 -6.65504e-19)
(0.0151173 0.000680258 -6.75226e-19)
(0.015255 0.000609139 -7.20775e-19)
(0.0153478 0.000614103 -6.19719e-19)
(0.0153952 0.000698127 -5.565e-19)
(0.000113335 -0.111596 1.42978e-18)
(0.00021407 -0.107214 1.85297e-18)
(0.000278502 -0.10078 1.74811e-18)
(0.000324476 -0.0940344 1.44244e-18)
(0.00033127 -0.0869299 1.78213e-18)
(0.000297502 -0.0794888 1.88112e-18)
(0.000225994 -0.0717694 1.59645e-18)
(0.000121968 -0.0638448 1.51952e-18)