/*--------------------------------*- C++ -*----------------------------------*\
| =========                 |                                                 |
| \\      /  F ield         | OpenFOAM: The Open Source CFD Toolbox           |
|  \\    /   O peration     | Version:  2312                                  |
|   \\  /    A nd           | Website:  www.openfoam.com                      |
|    \\/     M anipulation  |                                                 |
\*---------------------------------------------------------------------------*/
FoamFile
{
    version     2.0;
    format      ascii;
    arch        "LSB;label=32;scalar=64";
    class       volScalarField;
    location    "13117.4";
    object      alpha.sludge;
}
// * * * * * * * * * * * * * * * * * * * * * * * * * * * * * * * * * * * * * //

dimensions      [0 0 0 0 0 0 0];

internalField   nonuniform List<scalar> 
3780
(
0.000560046
0.000556741
0.000554264
0.000552278
0.0005507
0.00054976
0.000549771
0.000551121
0.000554048
0.000558931
0.000566394
0.000577647
0.000594492
0.000618921
0.000653131
0.000698807
0.000750335
0.000803769
0.000856507
0.000905624
0.000944765
0.000972779
0.000998029
0.00101862
0.00103484
0.00104686
0.00105617
0.00106451
0.00107336
0.00108306
0.00109368
0.0011056
0.00111926
0.00113518
0.00115373
0.00118118
0.0012175
0.00125571
0.00128378
0.00129048
0.000572807
0.000564357
0.000558553
0.000554266
0.000551246
0.000549548
0.00054937
0.000551023
0.000554929
0.000561636
0.000571907
0.000587054
0.00060876
0.000639103
0.000680497
0.000732572
0.000789038
0.000846037
0.000900189
0.000949219
0.000985898
0.00101188
0.00103272
0.00104864
0.00106115
0.00107055
0.00107862
0.00108652
0.00109467
0.00110329
0.00111333
0.00112601
0.00114246
0.00116388
0.00119134
0.00123143
0.00126447
0.00129583
0.00130978
0.00131091
0.000574063
0.000563388
0.000556187
0.000550815
0.000546936
0.000544608
0.000544048
0.000545602
0.000549771
0.000557243
0.000568886
0.000585966
0.000610092
0.000643249
0.000687194
0.000741899
0.000801023
0.000859863
0.000914009
0.000960403
0.000992413
0.00101292
0.00102753
0.00103747
0.00104381
0.00104783
0.0010508
0.00105356
0.00105691
0.00106206
0.0010704
0.00108297
0.00110087
0.00112538
0.00115809
0.00119758
0.00123503
0.00127309
0.00129592
0.00129776
0.000575446
0.000561596
0.000552278
0.000545269
0.000540029
0.000536558
0.000535041
0.000535805
0.000539328
0.000546273
0.000557515
0.000574218
0.000597897
0.00063036
0.000673301
0.000726637
0.000787082
0.000847424
0.000902061
0.000946747
0.000974608
0.000990394
0.000999402
0.00100323
0.00100349
0.0010017
0.00099924
0.000997352
0.000997171
0.001
0.00100675
0.00101827
0.00103562
0.00106008
0.00109326
0.00113497
0.0011813
0.00122811
0.00125713
0.00125628
0.000577378
0.000559572
0.000547564
0.000538429
0.000531367
0.000526287
0.000523327
0.000522766
0.000525022
0.000530684
0.000540574
0.000555653
0.000577277
0.000607145
0.000646947
0.000697363
0.000756084
0.000817791
0.00087439
0.000919287
0.000944891
0.000957505
0.000962501
0.000961934
0.000957818
0.000951974
0.000945979
0.000941164
0.000938671
0.000939531
0.000944491
0.000954419
0.000970377
0.000993713
0.00102614
0.00106881
0.00111922
0.00117367
0.00120789
0.00120818
0.000580165
0.00055762
0.000542346
0.000530617
0.000521309
0.000514221
0.00050944
0.000507195
0.000507848
0.000511906
0.000520078
0.000533111
0.000552214
0.000578886
0.00061481
0.000661135
0.000716993
0.000777983
0.000836688
0.000883895
0.000909309
0.000920686
0.000923678
0.000920785
0.000914316
0.000906235
0.000898145
0.000891345
0.000886902
0.00088573
0.000888615
0.000896499
0.00091056
0.000932321
0.000963751
0.00100677
0.00106002
0.00112156
0.00116188
0.00116519
0.000583952
0.000555925
0.000536844
0.000522083
0.000510143
0.000500704
0.000493799
0.000489622
0.000488478
0.000490791
0.000497127
0.000508265
0.000525082
0.000548836
0.000581098
0.000623278
0.000675466
0.000734731
0.000794093
0.000844022
0.000870901
0.000882603
0.000885229
0.000881585
0.000874184
0.000865029
0.000855668
0.000847318
0.000840993
0.000837631
0.000838125
0.000843522
0.000855151
0.000874765
0.000904696
0.000947473
0.00100361
0.00107386
0.00111991
0.00112617
0.000588842
0.000554652
0.000531276
0.000513077
0.000498147
0.000486045
0.000476769
0.000470491
0.000467485
0.000468117
0.000472871
0.000482422
0.000497399
0.000518857
0.000548185
0.000586834
0.000635457
0.000692247
0.000751255
0.000802673
0.000831421
0.00084429
0.000847499
0.000844022
0.000836463
0.000826834
0.000816626
0.000806963
0.000798841
0.000793286
0.000791259
0.00079388
0.000802602
0.000819408
0.000847057
0.000888944
0.000948304
0.00102864
0.0010824
0.00109229
0.000594894
0.000553923
0.000525817
0.000503804
0.000485539
0.000470477
0.000458601
0.000450091
0.000445213
0.000444295
0.000447746
0.000456091
0.000469812
0.000489791
0.000517176
0.000553296
0.000599008
0.000653216
0.000710868
0.000762499
0.000792192
0.000806152
0.000810216
0.000807234
0.000799822
0.000789959
0.000779092
0.000768276
0.000758605
0.000751141
0.000746809
0.0007467
0.000752292
0.000765728
0.000790209
0.000830356
0.000892294
0.000983113
0.00104824
0.00106291
0.000602181
0.000553846
0.000520617
0.000494419
0.000472465
0.000454134
0.000439431
0.000428573
0.000421846
0.000419554
0.000422023
0.000429614
0.000442838
0.000462254
0.000488756
0.000523434
0.000567077
0.000618863
0.000674339
0.000724579
0.000753918
0.00076815
0.000772668
0.000770081
0.000762831
0.000752822
0.000741469
0.000729826
0.000719148
0.000710383
0.000704326
0.000701915
0.000704504
0.000714232
0.000734602
0.000771401
0.000833678
0.000933967
0.00101712
0.0010386
0.000610768
0.000554471
0.000515736
0.000484959
0.00045893
0.000436996
0.000419234
0.000405941
0.00039746
0.000394105
0.000396139
0.000403797
0.000417358
0.00043714
0.000463732
0.000497873
0.000540052
0.000589358
0.000641625
0.000688624
0.000715944
0.000729286
0.000733546
0.000731045
0.000723998
0.000714162
0.000702818
0.000691045
0.000680123
0.000670746
0.000663509
0.000659187
0.000659023
0.000665127
0.00068119
0.000713774
0.000774791
0.00088012
0.000992723
0.00102092
0.000620336
0.000555348
0.000510635
0.000474786
0.000444218
0.000418324
0.000397318
0.000381624
0.000371682
0.000367847
0.000370314
0.00037913
0.000394279
0.000415638
0.00044322
0.000477316
0.000517966
0.000563881
0.000610982
0.000652108
0.000675471
0.000686953
0.000690687
0.000688561
0.000682362
0.000673505
0.0006631
0.000652362
0.000642025
0.000632479
0.000624254
0.000618137
0.000615463
0.000618484
0.000630968
0.000659192
0.000714445
0.000815236
0.000980616
0.00100598
0.000629213
0.000556405
0.000506647
0.000466243
0.000431394
0.000401614
0.000377274
0.000358938
0.000347183
0.000342474
0.000344975
0.000354568
0.000370923
0.00039252
0.00041892
0.000450175
0.000486203
0.000526042
0.000566915
0.000603927
0.000627341
0.000641404
0.000648877
0.000650735
0.000648139
0.000642214
0.000634029
0.000624455
0.000613895
0.000602913
0.000592236
0.000582818
0.000576684
0.000577101
0.000588858
0.000617703
0.000669677
0.000755549
0.000856519
0.000952112
0.00064071
0.000563652
0.000510568
0.000467003
0.000428874
0.000395629
0.000367668
0.000345606
0.000330143
0.000321953
0.00032141
0.000328534
0.000342994
0.000364058
0.000389625
0.000418962
0.0004517
0.000487076
0.000523261
0.000557056
0.000580326
0.000596132
0.000607029
0.000613303
0.000615566
0.000614507
0.000610808
0.000605091
0.000597783
0.000588988
0.000578594
0.000566354
0.000551897
0.000535377
0.000518031
0.000500692
0.000484482
0.00047107
0.000460658
0.000452698
0.000654109
0.000573052
0.000516745
0.000470163
0.00042893
0.000392397
0.000360872
0.000335002
0.000315565
0.00030346
0.000299311
0.000303438
0.000315619
0.000335226
0.000360137
0.000388481
0.000419363
0.000451916
0.000484759
0.000515686
0.000537912
0.000553907
0.000566141
0.000574689
0.000579889
0.000582184
0.00058204
0.000579897
0.000576145
0.000571102
0.000564986
0.000557915
0.000549839
0.000540585
0.000530214
0.000519048
0.000507587
0.000496384
0.000485684
0.00047547
0.000669076
0.000584238
0.000524873
0.000475413
0.000431186
0.000391424
0.000356378
0.000326679
0.000303143
0.000286673
0.000278153
0.0002783
0.000287218
0.000304347
0.000328374
0.000356135
0.00038599
0.000416826
0.000447409
0.000476109
0.000497151
0.000512714
0.000525242
0.000534759
0.000541478
0.0005457
0.000547757
0.000547983
0.000546692
0.00054417
0.000540666
0.000536389
0.000531495
0.000526074
0.000520156
0.000513745
0.000506872
0.000499635
0.000492131
0.000484382
0.000685475
0.000597049
0.000534803
0.000482637
0.00043558
0.000392732
0.00035425
0.000320702
0.000292885
0.000271747
0.000258294
0.00025347
0.000257944
0.000271578
0.00029336
0.000320334
0.000349479
0.000379242
0.000408321
0.000435359
0.000455292
0.000470172
0.000482437
0.00049213
0.000499423
0.000504546
0.000507753
0.000509301
0.000509442
0.000508415
0.000506441
0.000503726
0.000500453
0.000496778
0.000492823
0.000488661
0.000484316
0.000479775
0.000474986
0.00046984
0.000703213
0.000611371
0.000546423
0.000491735
0.000442049
0.00039632
0.000354589
0.000317318
0.000285224
0.00025922
0.000240369
0.000229775
0.000228423
0.000236902
0.000254678
0.000279927
0.000308206
0.000337052
0.000364962
0.000390644
0.000409517
0.000423577
0.000435237
0.00044458
0.000451775
0.000457021
0.000460529
0.000462509
0.000463165
0.000462695
0.000461285
0.000459113
0.000456349
0.000453149
0.000449658
0.000445994
0.000442246
0.000438458
0.00043462
0.000430646
0.000722309
0.000627186
0.000559701
0.000502673
0.000450572
0.00040221
0.000357503
0.00031678
0.000280621
0.000249827
0.000225406
0.000208529
0.000200389
0.000201979
0.000213759
0.000234683
0.00026122
0.00028877
0.000315322
0.000339531
0.000357172
0.000370185
0.000380903
0.00038944
0.000395969
0.000400672
0.000403732
0.000405328
0.000405631
0.000404805
0.000403007
0.00040039
0.000397103
0.000393295
0.000389108
0.000384675
0.000380112
0.000375519
0.000370947
0.000366386
0.000742862
0.000644562
0.000574678
0.000515473
0.000461163
0.000410433
0.000363077
0.000319281
0.000279461
0.00024424
0.000214468
0.000191225
0.000175771
0.000169359
0.000172911
0.000186599
0.00020886
0.00023398
0.000258351
0.000280425
0.000296294
0.000307784
0.000317045
0.000324199
0.000329408
0.00033283
0.000334622
0.000334932
0.000333899
0.000331661
0.000328348
0.000324089
0.000319035
0.000313339
0.000307155
0.000300642
0.000293947
0.000287192
0.000280528
0.000274002
0.000765052
0.000663642
0.000591467
0.000530217
0.00047388
0.00042103
0.000371359
0.000324925
0.000281975
0.000242932
0.000208413
0.000179275
0.000156629
0.000141779
0.000135961
0.000139844
0.000153063
0.000173728
0.000194673
0.000213465
0.000226601
0.000235758
0.000242757
0.000247706
0.000250729
0.000251942
0.000251466
0.000249411
0.000245898
0.000241053
0.000234998
0.000227819
0.000219579
0.000210532
0.000200974
0.000191201
0.000181491
0.000172082
0.000163094
0.000154555
0.000789128
0.000684642
0.000610242
0.000547043
0.000488816
0.000434055
0.000382375
0.000333729
0.000288222
0.000246086
0.000207702
0.000173643
0.000144715
0.000121994
0.000106755
0.000100128
0.000102345
0.000112356
0.000127429
0.000141762
0.00015114
0.000156997
0.000160736
0.000162505
0.000162437
0.000160542
0.000156946
0.000151782
0.000145111
0.00013717
0.000128353
0.00011916
0.000110041
0.000101125
9.25118e-05
8.42828e-05
7.65037e-05
6.92184e-05
6.24301e-05
5.59965e-05
0.000815392
0.000707823
0.000631224
0.00056612
0.000506088
0.000449563
0.000396116
0.000345625
0.000298088
0.000253584
0.000212299
0.000174545
0.000140806
0.00011178
8.84134e-05
7.18428e-05
6.29663e-05
6.14518e-05
6.54035e-05
7.21029e-05
7.68552e-05
7.91856e-05
7.97738e-05
7.87214e-05
7.59401e-05
7.15412e-05
6.61153e-05
6.02341e-05
5.44223e-05
4.87564e-05
4.3266e-05
3.80264e-05
3.31449e-05
2.86947e-05
2.46995e-05
2.11575e-05
1.80495e-05
1.53436e-05
1.30015e-05
1.09479e-05
0.000844169
0.000733468
0.000654644
0.000587629
0.000525811
0.000467595
0.000412533
0.000360465
0.000311316
0.000265057
0.000221731
0.000181469
0.000144516
0.000111262
8.22703e-05
5.83268e-05
4.0433e-05
2.93948e-05
2.44844e-05
2.31501e-05
2.28756e-05
2.24934e-05
2.1677e-05
2.02993e-05
1.83576e-05
1.61853e-05
1.39886e-05
1.18954e-05
1.00008e-05
8.34291e-06
6.91283e-06
5.69217e-06
4.66221e-06
3.8027e-06
3.09171e-06
2.50731e-06
2.02907e-06
1.63873e-06
1.32128e-06
1.06393e-06
0.000875783
0.00076185
0.000680722
0.000611728
0.000548072
0.000488144
0.000431514
0.000378011
0.000327516
0.00027993
0.000235196
0.000193325
0.000154426
0.000118721
8.65698e-05
5.85095e-05
3.53434e-05
1.8314e-05
8.65545e-06
4.90335e-06
3.69511e-06
3.15938e-06
2.76177e-06
2.39419e-06
2.03387e-06
1.69963e-06
1.40518e-06
1.15347e-06
9.42516e-07
7.68082e-07
6.24829e-07
5.07576e-07
4.1186e-07
3.33937e-07
2.70653e-07
2.19352e-07
1.77816e-07
1.44221e-07
1.17108e-07
9.5399e-08
0.000910532
0.000793211
0.000709642
0.000638541
0.000572912
0.000511157
0.000452885
0.000397947
0.000346207
0.000297514
0.000251733
0.000208783
0.000168668
0.000131513
9.75843e-05
6.73221e-05
4.14162e-05
2.10316e-05
8.0701e-06
2.78429e-06
1.32494e-06
8.15667e-07
5.61758e-07
4.14801e-07
3.19778e-07
2.52589e-07
2.02317e-07
1.63367e-07
1.32548e-07
1.07887e-07
8.8002e-08
7.1882e-08
5.87715e-08
4.80902e-08
3.93828e-08
3.22848e-08
2.65016e-08
2.17955e-08
1.79809e-08
1.4938e-08
0.000948702
0.000827781
0.000741576
0.000668177
0.000600366
0.000536565
0.00047646
0.000419951
0.00036691
0.000317156
0.000270483
0.000226714
0.000185743
0.000147578
0.000112384
8.05111e-05
5.25504e-05
2.94986e-05
1.31047e-05
4.71858e-06
2.03565e-06
1.07764e-06
6.1534e-07
3.67921e-07
2.28009e-07
1.46069e-07
9.66954e-08
6.61378e-08
4.66859e-08
3.38986e-08
2.52205e-08
1.91455e-08
1.47722e-08
1.15496e-08
9.13094e-09
7.28948e-09
5.87217e-09
4.7731e-09
3.91844e-09
3.26145e-09
0.000990657
0.000865864
0.000776774
0.000700828
0.000630543
0.000564382
0.000502133
0.000443786
0.000389255
0.00033835
0.000290814
0.000246375
0.000204801
0.000165953
0.000129848
9.66942e-05
6.69537e-05
4.14392e-05
2.1574e-05
9.08227e-06
4.09602e-06
2.17257e-06
1.22925e-06
7.19669e-07
4.29633e-07
2.60199e-07
1.59705e-07
9.94083e-08
6.28323e-08
4.03832e-08
2.64217e-08
1.76146e-08
1.1969e-08
8.27193e-09
5.7972e-09
4.11165e-09
2.95234e-09
2.15244e-09
1.60298e-09
1.23388e-09
0.00103691
0.000907921
0.000815642
0.000736844
0.000663718
0.000594772
0.00052994
0.000469345
0.000412983
0.000360691
0.000312191
0.000267138
0.000225179
0.000186012
0.000149458
0.000115529
8.44925e-05
5.69546e-05
3.39909e-05
1.70444e-05
8.44076e-06
4.62452e-06
2.66609e-06
1.58844e-06
9.62863e-07
5.89731e-07
3.64318e-07
2.27153e-07
1.43166e-07
9.13541e-08
5.90767e-08
3.87155e-08
2.56795e-08
1.72142e-08
1.16333e-08
7.87047e-09
5.27707e-09
3.48612e-09
2.29354e-09
1.55635e-09
0.00108799
0.000954498
0.000858727
0.00077675
0.000700359
0.000628108
0.000560118
0.0004967
0.000437979
0.000383867
0.000334106
0.00028832
0.000246067
0.000206899
0.000170433
0.000136426
0.000104867
7.60697e-05
5.07688e-05
2.99564e-05
1.69704e-05
9.94309e-06
5.9142e-06
3.60793e-06
2.23794e-06
1.39992e-06
8.80418e-07
5.57136e-07
3.55867e-07
2.30399e-07
1.51775e-07
1.01921e-07
6.96709e-08
4.82292e-08
3.35416e-08
2.32981e-08
1.61105e-08
1.08715e-08
6.77792e-09
3.87458e-09
0.0011442
0.00100616
0.00090675
0.000821369
0.000741313
0.000665185
0.000593337
0.000526334
0.000464492
0.000407851
0.000356222
0.000309254
0.000266473
0.000227339
0.000191302
0.000157878
0.000126732
9.77768e-05
7.12971e-05
4.79802e-05
3.1394e-05
2.06141e-05
1.315e-05
8.34673e-06
5.33938e-06
3.44019e-06
2.22346e-06
1.43963e-06
9.36386e-07
6.15974e-07
4.13807e-07
2.86786e-07
2.06236e-07
1.53368e-07
1.16305e-07
8.7905e-08
6.36751e-08
4.43894e-08
3.17207e-08
1.9522e-08
0.00120929
0.00106668
0.000963559
0.000874577
0.000790404
0.000709656
0.000632948
0.000561189
0.000494976
0.000434549
0.000379855
0.000330625
0.000286421
0.000246671
0.00021072
0.00017789
0.000147556
0.000119241
9.27559e-05
6.84746e-05
5.0023e-05
3.68017e-05
2.62209e-05
1.81542e-05
1.23323e-05
8.31683e-06
5.6114e-06
3.79715e-06
2.57904e-06
1.76367e-06
1.22436e-06
8.76059e-07
6.60174e-07
5.34681e-07
4.67299e-07
4.3216e-07
4.06885e-07
3.3732e-07
2.34298e-07
1.70714e-07
0.0012942
0.00114346
0.0010331
0.000937387
0.00084613
0.000757911
0.000673652
0.00059467
0.000521893
0.000455801
0.000396466
0.000343693
0.000297074
0.00025602
0.000219798
0.000187581
0.000158491
0.000131667
0.000106381
8.24546e-05
6.35794e-05
4.94777e-05
3.75372e-05
2.77233e-05
1.99671e-05
1.41093e-05
9.86706e-06
6.88097e-06
4.80839e-06
3.38311e-06
2.42052e-06
1.79817e-06
1.43501e-06
1.27453e-06
1.27239e-06
1.392e-06
1.60795e-06
1.91337e-06
2.33277e-06
2.99855e-06
0.00136092
0.0012
0.00108074
0.000976361
0.000876003
0.000778555
0.000685499
0.00059869
0.000519349
0.000448014
0.00038477
0.000329384
0.00028137
0.000240031
0.00020451
0.000173848
0.000147044
0.00012312
0.000101223
8.08089e-05
6.45409e-05
5.21731e-05
4.14164e-05
3.2241e-05
2.46144e-05
1.84741e-05
1.37011e-05
1.01107e-05
7.47638e-06
5.57623e-06
4.22835e-06
3.30392e-06
2.72305e-06
2.44163e-06
2.43022e-06
2.65233e-06
3.0573e-06
3.59229e-06
4.22208e-06
4.95422e-06
0.00142684
0.00125639
0.00112874
0.00101573
0.000905938
0.000798752
0.000696368
0.000601158
0.00051468
0.000437619
0.000370076
0.000311769
0.000262127
0.000220336
0.000185398
0.000156202
0.000131597
0.000110469
9.1815e-05
7.4847e-05
6.13873e-05
5.10766e-05
4.19625e-05
3.40015e-05
2.71711e-05
2.14454e-05
1.67749e-05
1.30734e-05
1.02168e-05
8.05914e-06
6.45916e-06
5.30511e-06
4.52768e-06
4.08711e-06
3.94436e-06
4.04695e-06
4.32736e-06
4.71245e-06
5.13562e-06
5.65742e-06
0.00149829
0.00131829
0.00118192
0.00105977
0.000939792
0.000821898
0.00070911
0.000604531
0.000510155
0.000426811
0.000354581
0.000293096
0.000241659
0.000199305
0.000164848
0.000136977
0.000114356
9.57213e-05
7.99605e-05
6.61161e-05
5.53145e-05
4.70579e-05
3.97088e-05
3.31982e-05
2.74987e-05
2.25961e-05
1.84706e-05
1.5083e-05
1.23677e-05
1.02371e-05
8.59693e-06
7.37752e-06
6.52261e-06
5.98594e-06
5.72168e-06
5.67524e-06
5.7848e-06
5.99136e-06
6.25537e-06
6.60013e-06
0.00157538
0.00138601
0.00124062
0.00110878
0.000977697
0.000847993
0.000723688
0.000608784
0.000505813
0.000415763
0.000338651
0.000273967
0.000220839
0.000178088
0.000144282
0.000117839
9.71795e-05
8.086e-05
6.76507e-05
5.6496e-05
4.80113e-05
4.15885e-05
3.58752e-05
3.07804e-05
2.62658e-05
2.23171e-05
1.89244e-05
1.60688e-05
1.3715e-05
1.18127e-05
1.03051e-05
9.14223e-06
8.29263e-06
7.71224e-06
7.35763e-06
7.18244e-06
7.13951e-06
7.18694e-06
7.29823e-06
7.4957e-06
0.00165983
0.00146119
0.00130625
0.00116389
0.00102055
0.000877695
0.000740531
0.000614152
0.000501774
0.000404572
0.000322446
0.00025467
0.000200119
0.000157323
0.000124507
9.97332e-05
8.11157e-05
6.70086e-05
5.60901e-05
4.72264e-05
4.068e-05
3.57968e-05
3.14803e-05
2.76284e-05
2.41934e-05
2.11559e-05
1.85064e-05
1.62333e-05
1.43169e-05
1.27291e-05
1.14373e-05
1.04102e-05
9.62065e-06
9.04062e-06
8.6374e-06
8.37548e-06
8.22064e-06
8.14265e-06
8.11853e-06
8.14228e-06
0.00175247
0.00154519
0.00138006
0.00122624
0.00106932
0.000911784
0.000760186
0.000620935
0.000498139
0.000393238
0.000305964
0.000235278
0.000179706
0.000137367
0.000106016
8.32472e-05
6.68092e-05
5.48463e-05
4.59571e-05
3.9004e-05
3.4025e-05
3.03763e-05
2.7184e-05
2.43453e-05
2.18078e-05
1.95471e-05
1.75512e-05
1.58107e-05
1.43138e-05
1.30451e-05
1.19861e-05
1.1118e-05
1.04215e-05
9.87629e-06
9.45971e-06
9.14939e-06
8.92216e-06
8.75562e-06
8.62743e-06
8.50564e-06
0.00185306
0.00163926
0.00146369
0.00129753
0.00112571
0.000951845
0.000783976
0.000630073
0.000495471
0.000382052
0.000289352
0.000215907
0.000159757
0.000118442
8.90617e-05
6.86107e-05
5.44391e-05
4.45113e-05
3.73884e-05
3.20034e-05
2.82635e-05
2.55746e-05
2.32518e-05
2.11988e-05
1.93635e-05
1.7719e-05
1.62516e-05
1.49526e-05
1.38141e-05
1.28273e-05
1.19818e-05
1.12662e-05
1.06682e-05
1.01744e-05
9.77028e-06
9.44103e-06
9.17124e-06
8.94422e-06
8.73703e-06
8.49325e-06
0.00195857
0.0017437
0.00155896
0.00138019
0.00119245
0.00100068
0.000814425
0.000643524
0.000495076
0.000371796
0.00027306
0.000196843
0.000140505
0.000100753
7.37759e-05
5.58374e-05
4.3901e-05
3.58272e-05
3.02099e-05
2.60922e-05
2.33159e-05
2.13584e-05
1.96906e-05
1.82273e-05
1.69201e-05
1.57428e-05
1.46811e-05
1.37268e-05
1.2874e-05
1.2117e-05
1.14501e-05
1.08665e-05
1.03588e-05
9.91883e-06
9.53777e-06
9.2062e-06
8.91361e-06
8.64653e-06
8.37947e-06
8.03311e-06
0.00206301
0.00185705
0.00166759
0.00147752
0.0012738
0.00106288
0.000855848
0.000664792
0.000499396
0.000363991
0.000257997
0.000178647
0.000122342
8.45671e-05
6.02615e-05
4.48488e-05
3.49786e-05
2.85223e-05
2.41496e-05
2.10348e-05
1.89952e-05
1.75855e-05
1.64015e-05
1.53706e-05
1.44503e-05
1.36163e-05
1.28553e-05
1.21594e-05
1.15238e-05
1.09449e-05
1.0419e-05
9.94258e-06
9.51136e-06
9.12076e-06
8.7656e-06
8.43994e-06
8.13624e-06
7.84252e-06
7.53065e-06
7.10322e-06
0.00216052
0.00197615
0.00179112
0.00159422
0.00137636
0.00114584
0.000915446
0.000699894
0.00051269
0.000361273
0.000245708
0.000162221
0.00010583
7.02118e-05
4.86192e-05
3.55669e-05
2.74955e-05
2.23609e-05
1.89709e-05
1.6625e-05
1.51352e-05
1.41272e-05
1.32934e-05
1.25729e-05
1.19294e-05
1.13416e-05
1.07974e-05
1.02897e-05
9.81449e-06
9.36911e-06
8.9515e-06
8.55969e-06
8.19161e-06
7.84485e-06
7.51651e-06
7.20275e-06
6.89779e-06
6.59053e-06
6.25132e-06
5.77267e-06
0.00224865
0.00209669
0.00192952
0.00173563
0.00150958
0.00126126
0.00100521
0.000759217
0.00054239
0.000368091
0.000238664
0.000148858
9.162e-05
5.79489e-05
3.88364e-05
2.78244e-05
2.12325e-05
1.714e-05
1.45058e-05
1.27367e-05
1.16491e-05
1.09296e-05
1.03441e-05
9.84174e-06
9.39222e-06
8.97737e-06
8.58663e-06
8.21394e-06
7.85589e-06
7.51053e-06
7.1767e-06
6.85348e-06
6.54001e-06
6.2352e-06
5.93752e-06
5.64445e-06
5.35142e-06
5.04848e-06
4.7069e-06
4.22094e-06
0.00232676
0.0022117
0.00207481
0.00189864
0.00167682
0.00141774
0.00113665
0.000854468
0.000597693
0.000389996
0.00024002
0.000140186
8.03974e-05
4.79373e-05
3.0813e-05
2.14381e-05
1.60175e-05
1.27363e-05
1.06791e-05
9.33945e-06
8.54244e-06
8.0274e-06
7.61513e-06
7.26396e-06
6.94882e-06
6.65468e-06
6.37273e-06
6.09792e-06
5.82751e-06
5.56012e-06
5.29511e-06
5.0322e-06
4.77123e-06
4.51188e-06
4.25343e-06
3.99435e-06
3.73125e-06
3.45597e-06
3.14388e-06
2.70426e-06
0.00239934
0.00232219
0.0022223
0.00207819
0.00187691
0.00161726
0.00131234
0.000989052
0.000682767
0.00043046
0.000252784
0.000138428
7.31842e-05
4.03745e-05
2.44381e-05
1.62592e-05
1.174e-05
9.09464e-06
7.48629e-06
6.47188e-06
5.88737e-06
5.51819e-06
5.22749e-06
4.98173e-06
4.76081e-06
4.55271e-06
4.3504e-06
4.14987e-06
3.94906e-06
3.74702e-06
3.54348e-06
3.33852e-06
3.13235e-06
2.92512e-06
2.71669e-06
2.5063e-06
2.29181e-06
2.06749e-06
1.81516e-06
1.46827e-06
0.00249619
0.00245914
0.00240533
0.00231538
0.00216595
0.00192692
0.00158859
0.00119612
0.000810487
0.000493273
0.000277194
0.000143128
6.92527e-05
3.45059e-05
1.91648e-05
1.19566e-05
8.22473e-06
6.13708e-06
4.91117e-06
4.16141e-06
3.74114e-06
3.48106e-06
3.27945e-06
3.11055e-06
2.95906e-06
2.81587e-06
2.67571e-06
2.53561e-06
2.39409e-06
2.25057e-06
2.105e-06
1.95765e-06
1.80892e-06
1.6592e-06
1.50874e-06
1.35741e-06
1.20425e-06
1.04604e-06
8.71787e-07
6.41406e-07
0.00254767
0.00253623
0.00251599
0.00247735
0.00240511
0.00225482
0.00194196
0.0014573
0.000948589
0.000530238
0.000275983
0.000130508
5.7404e-05
2.66702e-05
1.42267e-05
8.62007e-06
5.76342e-06
4.17689e-06
3.25205e-06
2.69177e-06
2.38126e-06
2.19121e-06
2.04541e-06
1.92428e-06
1.8162e-06
1.71428e-06
1.61454e-06
1.51477e-06
1.41392e-06
1.31158e-06
1.20783e-06
1.10296e-06
9.97369e-07
8.91496e-07
7.85677e-07
6.80028e-07
5.74168e-07
4.66463e-07
3.50939e-07
2.06964e-07
0.00252826
0.00246603
0.00241743
0.00239384
0.00239294
0.00227802
0.00195789
0.00145799
0.000926239
0.000500771
0.000244231
0.000107638
4.52298e-05
2.09427e-05
1.12115e-05
6.73903e-06
4.41219e-06
3.10898e-06
2.34855e-06
1.88919e-06
1.63605e-06
1.48243e-06
1.36594e-06
1.27049e-06
1.18653e-06
1.10842e-06
1.03289e-06
9.58137e-07
8.83276e-07
8.08004e-07
7.3238e-07
6.56677e-07
5.81286e-07
5.06645e-07
4.3318e-07
3.61228e-07
2.90928e-07
2.21909e-07
1.51806e-07
7.19527e-08
0.00245304
0.00237124
0.00234439
0.00229964
0.00230854
0.00221949
0.00186624
0.00134319
0.000814985
0.00041599
0.000186716
7.59614e-05
3.18661e-05
1.54664e-05
8.54966e-06
5.1524e-06
3.31292e-06
2.26407e-06
1.64872e-06
1.27753e-06
1.07439e-06
9.5257e-07
8.61784e-07
7.88998e-07
7.26484e-07
6.69668e-07
6.15887e-07
5.63664e-07
5.12261e-07
4.61408e-07
4.11127e-07
3.61622e-07
3.13206e-07
2.66245e-07
2.21117e-07
1.78146e-07
1.3744e-07
9.91935e-08
6.30299e-08
2.51353e-08
0.00254453
0.00253557
0.00254382
0.00244438
0.00232496
0.00212673
0.001674
0.00113027
0.00064543
0.0002874
0.000116157
4.62838e-05
2.12312e-05
1.11915e-05
6.41754e-06
3.87903e-06
2.44802e-06
1.61803e-06
1.12892e-06
8.34732e-07
6.75324e-07
5.81403e-07
5.13027e-07
4.59802e-07
4.1557e-07
3.76665e-07
3.40938e-07
3.07172e-07
2.74733e-07
2.43349e-07
2.12971e-07
1.83694e-07
1.55696e-07
1.29206e-07
1.04478e-07
8.17407e-08
6.11788e-08
4.24291e-08
2.61612e-08
1.82533e-08
0.00254401
0.00253755
0.00250557
0.00241852
0.00221402
0.00182136
0.00140894
0.000832542
0.000362309
0.000144689
5.80674e-05
2.701e-05
1.42777e-05
8.09037e-06
4.76156e-06
2.87609e-06
1.78283e-06
1.14301e-06
7.66622e-07
5.42571e-07
4.22378e-07
3.51251e-07
3.00306e-07
2.61878e-07
2.31125e-07
2.05104e-07
1.82075e-07
1.61043e-07
1.4146e-07
1.23055e-07
1.0572e-07
8.94463e-08
7.42853e-08
6.03373e-08
4.77701e-08
3.68918e-08
2.82696e-08
2.26905e-08
1.97833e-08
1.8745e-08
0.00253524
0.00250393
0.00244869
0.00235552
0.0020883
0.00160407
0.000900861
0.000400765
0.000159274
6.89512e-05
3.44602e-05
1.88456e-05
1.07637e-05
6.28582e-06
3.71919e-06
2.2261e-06
1.35417e-06
8.46045e-07
5.51068e-07
3.79131e-07
2.91741e-07
2.41258e-07
2.04549e-07
1.75934e-07
1.52357e-07
1.32086e-07
1.14159e-07
9.80599e-08
8.35399e-08
7.05002e-08
5.89255e-08
4.88402e-08
4.02781e-08
3.32611e-08
2.77807e-08
2.37794e-08
2.1128e-08
1.96057e-08
1.88935e-08
1.86408e-08
0.00102011
0.00044523
0.00046666
0.000477243
0.000464816
0.000426757
0.000362048
0.000268111
0.000147406
5.03963e-05
9.15755e-06
8.53283e-07
7.77021e-08
1.24201e-08
2.71893e-09
9.61019e-10
1.05384e-09
2.01521e-09
6.1219e-09
2.63383e-08
0.00104946
0.00110431
0.00116324
0.00124073
0.00133857
0.00143519
0.00153636
0.00163949
0.00173995
0.00182921
0.00189092
0.00191409
0.00192524
0.0019324
0.00193606
0.00193801
0.00193892
0.00193928
0.00193875
0.00193742
0.00188035
0.0016189
0.00143093
0.00123345
0.0010405
0.000855735
0.000682151
0.000523907
0.000384962
0.000268178
0.000175067
0.000105568
5.77662e-05
2.7917e-05
1.14378e-05
3.41583e-06
1.02162e-07
9.63668e-09
3.79363e-09
2.78229e-09
0.000435554
0.000413741
0.000394595
0.000376768
0.000357416
0.000341488
0.00032725
0.000314265
0.000302595
0.000292798
0.00028753
0.000284084
0.000283499
0.000284176
0.000283879
0.000277121
0.000256774
0.000221626
0.000171535
0.000111224
5.18271e-05
4.38069e-05
3.65434e-05
2.85053e-05
2.25299e-05
1.75551e-05
1.3363e-05
9.87198e-06
7.00993e-06
4.72462e-06
2.97798e-06
1.72409e-06
8.98265e-07
4.14902e-07
1.70089e-07
7.01519e-08
7.28293e-09
7.93896e-10
2.38533e-10
7.19922e-11
0.000445884
0.000413757
0.000383859
0.000356783
0.000331579
0.000308255
0.000285926
0.000263837
0.000241499
0.000218694
0.000195694
0.00017272
0.000149979
0.000127921
0.000107888
9.01753e-05
7.40063e-05
5.91483e-05
4.43852e-05
2.988e-05
1.68129e-05
1.16421e-05
8.57075e-06
6.17811e-06
4.50311e-06
3.27344e-06
2.34311e-06
1.63371e-06
1.09405e-06
6.9186e-07
4.05559e-07
2.15316e-07
9.99848e-08
3.98133e-08
1.34492e-08
4.42063e-09
6.53871e-10
7.17512e-11
1.62099e-11
2.02068e-12
0.000456426
0.000429718
0.000401461
0.000373139
0.000345618
0.000319281
0.00029369
0.000268174
0.000242219
0.000215613
0.000188567
0.000161585
0.000135343
0.000110553
8.81015e-05
6.85586e-05
5.20392e-05
3.8459e-05
2.74569e-05
1.82818e-05
1.08279e-05
6.63885e-06
4.23479e-06
2.72162e-06
1.78301e-06
1.18392e-06
7.8775e-07
5.17898e-07
3.29835e-07
1.98561e-07
1.10039e-07
5.43584e-08
2.27276e-08
7.84698e-09
2.17739e-09
5.42617e-10
7.4214e-11
7.29846e-12
1.22027e-12
6.16904e-14
0.000447338
0.00042592
0.000402832
0.000378172
0.000352562
0.000326495
0.000299965
0.000272663
0.000244317
0.000214941
0.000185061
0.00015563
0.00012773
0.000102208
7.96944e-05
6.05202e-05
4.46891e-05
3.19784e-05
2.20409e-05
1.43509e-05
8.60873e-06
4.95836e-06
2.82956e-06
1.61666e-06
9.36799e-07
5.54299e-07
3.34688e-07
2.04278e-07
1.23299e-07
7.1232e-08
3.79326e-08
1.78096e-08
6.88621e-09
2.08901e-09
4.76528e-10
9.02069e-11
1.0203e-11
8.40984e-13
1.02272e-13
2.04957e-15
0.000411244
0.000394088
0.000376208
0.000356681
0.000335105
0.000311383
0.000285478
0.000257371
0.000227215
0.000195537
0.000163671
0.000133388
0.00010621
8.27813e-05
6.32179e-05
4.72904e-05
3.45575e-05
2.45127e-05
1.67012e-05
1.07882e-05
6.46234e-06
3.63211e-06
1.96491e-06
1.04505e-06
5.5575e-07
2.99609e-07
1.6534e-07
9.34899e-08
5.33132e-08
2.9665e-08
1.53891e-08
7.022e-09
2.59718e-09
7.23406e-10
1.40854e-10
1.9937e-11
1.75754e-12
1.13737e-13
9.63815e-15
7.72722e-17
0.000343589
0.000327849
0.000313808
0.000299066
0.000281815
0.000260966
0.000236139
0.000207592
0.000176233
0.000143464
0.00011229
8.56471e-05
6.44361e-05
4.82412e-05
3.59724e-05
2.6716e-05
1.96076e-05
1.40151e-05
9.57376e-06
6.18541e-06
3.71387e-06
2.0819e-06
1.11292e-06
5.79877e-07
2.99555e-07
1.55628e-07
8.23388e-08
4.46462e-08
2.46025e-08
1.35356e-08
7.05703e-09
3.23251e-09
1.18867e-09
3.21107e-10
5.79741e-11
6.69663e-12
4.51487e-13
2.13539e-14
1.10729e-15
5.00567e-18
0.000242637
0.00022655
0.000215839
0.00020566
0.00019258
0.000174725
0.000151747
0.000124759
9.59381e-05
6.93943e-05
4.821e-05
3.25419e-05
2.16834e-05
1.47554e-05
1.07233e-05
8.18046e-06
6.32618e-06
4.74661e-06
3.328e-06
2.15836e-06
1.33229e-06
7.79654e-07
4.37464e-07
2.38653e-07
1.28089e-07
6.84237e-08
3.68468e-08
2.01708e-08
1.1384e-08
6.4587e-09
3.47544e-09
1.64004e-09
6.19221e-10
1.70505e-10
3.10678e-11
3.44783e-12
2.08544e-13
7.73174e-15
2.23339e-16
1.46264e-18
0.00012151
0.000111336
0.000107406
0.000103172
9.51259e-05
8.21774e-05