/*--------------------------------*- C++ -*----------------------------------*\
| =========                 |                                                 |
| \\      /  F ield         | OpenFOAM: The Open Source CFD Toolbox           |
|  \\    /   O peration     | Version:  2312                                  |
|   \\  /    A nd           | Website:  www.openfoam.com                      |
|    \\/     M anipulation  |                                                 |
\*---------------------------------------------------------------------------*/
FoamFile
{
    version     2.0;
    format      ascii;
    arch        "LSB;label=32;scalar=64";
    class       volScalarField;
    location    "13117.4";
    object      epsilon;
}
// * * * * * * * * * * * * * * * * * * * * * * * * * * * * * * * * * * * * * //

dimensions      [0 2 -3 0 0 0 0];

internalField   nonuniform List<scalar> 
3780
(
2.02107e-05
1.34138e-05
1.25594e-05
1.22014e-05
1.17749e-05
1.11992e-05
1.04901e-05
9.70285e-06
8.93215e-06
8.32147e-06
8.04335e-06
8.14462e-06
8.53057e-06
8.96761e-06
9.13765e-06
8.74615e-06
7.79063e-06
6.45773e-06
5.0158e-06
3.73021e-06
2.8207e-06
2.27718e-06
1.92629e-06
1.71198e-06
1.58772e-06
1.52132e-06
1.4935e-06
1.49413e-06
1.51822e-06
1.56242e-06
1.62235e-06
1.69358e-06
1.77387e-06
1.8609e-06
1.95149e-06
2.04233e-06
2.13005e-06
2.21215e-06
2.28248e-06
2.30685e-06
2.76961e-05
1.69446e-05
1.53349e-05
1.4845e-05
1.44818e-05
1.39976e-05
1.33165e-05
1.24378e-05
1.14296e-05
1.04503e-05
9.71729e-06
9.30956e-06
9.19253e-06
9.18767e-06
9.00385e-06
8.36496e-06
7.26383e-06
5.8748e-06
4.45408e-06
3.24411e-06
2.42787e-06
1.96481e-06
1.68133e-06
1.51848e-06
1.43221e-06
1.39416e-06
1.38778e-06
1.40377e-06
1.43617e-06
1.47999e-06
1.53037e-06
1.58295e-06
1.63363e-06
1.67793e-06
1.71134e-06
1.73209e-06
1.7379e-06
1.72807e-06
1.7008e-06
1.65145e-06
3.69404e-05
2.14251e-05
1.93455e-05
1.88999e-05
1.87046e-05
1.84019e-05
1.78532e-05
1.69994e-05
1.58402e-05
1.44538e-05
1.30514e-05
1.17957e-05
1.0789e-05
9.99777e-06
9.24516e-06
8.2661e-06
6.99781e-06
5.54741e-06
4.125e-06
2.94814e-06
2.18137e-06
1.75859e-06
1.51144e-06
1.38217e-06
1.32824e-06
1.32217e-06
1.3472e-06
1.39254e-06
1.4496e-06
1.50976e-06
1.56859e-06
1.62089e-06
1.66061e-06
1.68125e-06
1.67771e-06
1.64876e-06
1.59842e-06
1.53735e-06
1.48035e-06
1.43487e-06
4.4495e-05
2.50219e-05
2.25311e-05
2.21789e-05
2.22341e-05
2.22384e-05
2.19964e-05
2.13959e-05
2.037e-05
1.89033e-05
1.70771e-05
1.51198e-05
1.32249e-05
1.15252e-05
1.00241e-05
8.59683e-06
7.06303e-06
5.48585e-06
4.01013e-06
2.81295e-06
2.05903e-06
1.65342e-06
1.42993e-06
1.33105e-06
1.31363e-06
1.34823e-06
1.41486e-06
1.49817e-06
1.58387e-06
1.66218e-06
1.73195e-06
1.7887e-06
1.82545e-06
1.83384e-06
1.80678e-06
1.74237e-06
1.64727e-06
1.53973e-06
1.44479e-06
1.38004e-06
5.07596e-05
2.77775e-05
2.49617e-05
2.47219e-05
2.50305e-05
2.53522e-05
2.54549e-05
2.51946e-05
2.44606e-05
2.31631e-05
2.12456e-05
1.88926e-05
1.63232e-05
1.37806e-05
1.145e-05
9.38805e-06
7.5248e-06
5.74694e-06
4.1424e-06
2.87552e-06
2.10008e-06
1.68314e-06
1.45748e-06
1.36644e-06
1.3655e-06
1.42196e-06
1.51123e-06
1.61263e-06
1.70663e-06
1.78886e-06
1.86152e-06
1.92167e-06
1.96225e-06
1.97318e-06
1.94357e-06
1.8662e-06
1.74333e-06
1.59576e-06
1.45785e-06
1.36178e-06
5.56305e-05
2.96705e-05
2.65489e-05
2.63645e-05
2.68461e-05
2.74018e-05
2.77791e-05
2.78227e-05
2.74071e-05
2.64102e-05
2.47009e-05
2.23201e-05
1.94494e-05
1.63524e-05
1.33228e-05
1.05925e-05
8.25311e-06
6.25923e-06
4.52309e-06
3.12986e-06
2.30142e-06
1.8468e-06
1.59079e-06
1.47539e-06
1.45462e-06
1.49545e-06
1.57208e-06
1.66054e-06
1.73803e-06
1.80632e-06
1.87084e-06
1.93073e-06
1.97969e-06
2.0064e-06
1.99569e-06
1.93229e-06
1.80814e-06
1.63769e-06
1.45972e-06
1.32545e-06
5.94031e-05
3.08768e-05
2.74556e-05
2.72606e-05
2.78176e-05
2.84905e-05
2.90177e-05
2.92472e-05
2.90626e-05
2.83514e-05
2.69842e-05
2.482e-05
2.1973e-05
1.86672e-05
1.52163e-05
1.19563e-05
9.13793e-06
6.84384e-06
5.00775e-06
3.53578e-06
2.63176e-06
2.11832e-06
1.80617e-06
1.63656e-06
1.56215e-06
1.54891e-06
1.57456e-06
1.61808e-06
1.6539e-06
1.68942e-06
1.73263e-06
1.78482e-06
1.84141e-06
1.8914e-06
1.91675e-06
1.89386e-06
1.79999e-06
1.63389e-06
1.42771e-06
1.25168e-06
6.23774e-05
3.16265e-05
2.79255e-05
2.76738e-05
2.8223e-05
2.89005e-05
2.94404e-05
2.97018e-05
2.95893e-05
2.90177e-05
2.78815e-05
2.6027e-05
2.34107e-05
2.0189e-05
1.66325e-05
1.30992e-05
9.94131e-06
7.37775e-06
5.42245e-06
3.94922e-06
3.01878e-06
2.44629e-06
2.06487e-06
1.82085e-06
1.67009e-06
1.58004e-06
1.5296e-06
1.50693e-06
1.48272e-06
1.47086e-06
1.48004e-06
1.5128e-06
1.56709e-06
1.63491e-06
1.69933e-06
1.73209e-06
1.69586e-06
1.56549e-06
1.35106e-06
1.13414e-06
6.47627e-05
3.21088e-05
2.81816e-05
2.78651e-05
2.83606e-05
2.89621e-05
2.94005e-05
2.95496e-05
2.93419e-05
2.87314e-05
2.76607e-05
2.60207e-05
2.36592e-05
2.0663e-05
1.72335e-05
1.36889e-05
1.04083e-05
7.70238e-06
5.67863e-06
4.2262e-06
3.33515e-06
2.75022e-06
2.30956e-06
1.99085e-06
1.75993e-06
1.58985e-06
1.46272e-06
1.36842e-06
1.27857e-06
1.21653e-06
1.18544e-06
1.18666e-06
1.22046e-06
1.284e-06
1.36709e-06
1.44569e-06
1.4765e-06
1.41058e-06
1.21846e-06
9.73143e-07
6.66514e-05
3.24445e-05
2.83774e-05
2.80224e-05
2.8452e-05
2.893e-05
2.91857e-05
2.91096e-05
2.86657e-05
2.78507e-05
2.666e-05
2.50411e-05
2.2848e-05
2.00846e-05
1.68993e-05
1.35456e-05
1.03671e-05
7.69914e-06
5.71176e-06
4.32904e-06
3.50294e-06
2.93765e-06
2.48163e-06
2.11524e-06
1.82241e-06
1.58788e-06
1.39818e-06
1.23959e-06
1.10488e-06
1.00531e-06
9.3856e-07
9.03395e-07
8.99844e-07
9.28374e-07
9.87246e-07
1.06613e-06
1.13466e-06
1.14024e-06
1.01054e-06
7.78229e-07
6.80563e-05
3.26882e-05
2.86136e-05
2.82725e-05
2.86396e-05
2.89553e-05
2.89514e-05
2.85387e-05
2.77163e-05
2.65292e-05
2.50343e-05
2.32542e-05
2.11047e-05
1.85447e-05
1.56712e-05
1.2662e-05
9.78439e-06
7.3346e-06
5.49372e-06
4.21691e-06
3.45965e-06
2.9307e-06
2.48785e-06
2.11518e-06
1.80532e-06
1.55022e-06
1.3393e-06
1.15868e-06
1.00434e-06
8.84279e-07
7.93625e-07
7.28468e-07
6.86704e-07
6.67716e-07
6.71496e-07
6.96001e-07
7.31439e-07
7.56052e-07
7.124e-07
5.72521e-07
6.89447e-05
3.28672e-05
2.89893e-05
2.87489e-05
2.9083e-05
2.92292e-05
2.89326e-05
2.81334e-05
2.68726e-05
2.52436e-05
2.33471e-05
2.12378e-05
1.88883e-05
1.63773e-05
1.37885e-05
1.12084e-05
8.79137e-06
6.73702e-06
5.17772e-06
4.08047e-06
3.42736e-06
2.95292e-06
2.54081e-06
2.18253e-06
1.87466e-06
1.61062e-06
1.37973e-06
1.18177e-06
1.01836e-06
8.86725e-07
7.81674e-07
6.98174e-07
6.31896e-07
5.78275e-07
5.32396e-07
4.90099e-07
4.50757e-07
4.19564e-07
4.16232e-07
3.92761e-07
7.25547e-05
3.29643e-05
2.94455e-05
2.93152e-05
2.95712e-05
2.94847e-05
2.88295e-05
2.75826e-05
2.58317e-05
2.37368e-05
2.14836e-05
1.92327e-05
1.70529e-05
1.48838e-05
1.2753e-05
1.06828e-05
8.73973e-06
7.02749e-06
5.62632e-06
4.53656e-06
3.85118e-06
3.3263e-06
2.87887e-06
2.49269e-06
2.15927e-06
1.87111e-06
1.61586e-06
1.37678e-06
1.17167e-06
1.01268e-06
8.95303e-07
8.10644e-07
7.49819e-07
6.95903e-07
6.29875e-07
5.43527e-07
4.50873e-07
3.64794e-07
2.82893e-07
2.09969e-07
7.77914e-05
3.42008e-05
3.02203e-05
2.99072e-05
3.00404e-05
2.98452e-05
2.90777e-05
2.77036e-05
2.57915e-05
2.35013e-05
2.10391e-05
1.86108e-05
1.6354e-05
1.42253e-05
1.21872e-05
1.02999e-05
8.58586e-06
7.07882e-06
5.8102e-06
4.77981e-06
4.11357e-06
3.59915e-06
3.16301e-06
2.78735e-06
2.46234e-06
2.18238e-06
1.94301e-06
1.73878e-06
1.56361e-06
1.41637e-06
1.30045e-06
1.22513e-06
1.1897e-06
1.18041e-06
1.14148e-06
9.96828e-07
7.9323e-07
6.38342e-07
5.5693e-07
5.1829e-07
8.31882e-05
3.57996e-05
3.12831e-05
3.07497e-05
3.07177e-05
3.03727e-05
2.94636e-05
2.79483e-05
2.5867e-05
2.33784e-05
2.06816e-05
1.80049e-05
1.55443e-05
1.33868e-05
1.14269e-05
9.69609e-06
8.18058e-06
6.86795e-06
5.75342e-06
4.82705e-06
4.21054e-06
3.72717e-06
3.311e-06
2.94655e-06
2.6243e-06
2.33864e-06
2.08615e-06
1.86483e-06
1.67397e-06
1.51454e-06
1.38969e-06
1.30506e-06
1.26657e-06
1.27633e-06
1.32499e-06
1.38765e-06
1.43971e-06
1.47417e-06
1.49599e-06
1.51472e-06
8.89863e-05
3.76021e-05
3.2487e-05
3.16996e-05
3.14782e-05
3.09519e-05
2.98559e-05
2.81536e-05
2.59225e-05
2.32992e-05
2.04234e-05
1.75445e-05
1.48794e-05
1.25779e-05
1.06337e-05
8.97729e-06
7.59997e-06
6.45245e-06
5.49287e-06
4.6909e-06
4.14461e-06
3.71131e-06
3.33221e-06
2.9954e-06
2.69345e-06
2.42186e-06
2.1778e-06
1.95925e-06
1.76468e-06
1.59298e-06
1.44375e-06
1.31777e-06
1.21717e-06
1.14483e-06
1.10212e-06
1.08599e-06
1.08825e-06
1.09891e-06
1.11001e-06
1.11752e-06
9.53815e-05
3.96914e-05
3.39132e-05
3.28421e-05
3.24091e-05
3.16797e-05
3.03722e-05
2.84485e-05
2.59946e-05
2.31653e-05
2.01439e-05
1.71045e-05
1.42494e-05
1.17879e-05
9.81121e-06
8.17366e-06
6.88594e-06
5.87216e-06
5.05756e-06
4.38785e-06
3.92709e-06
3.55999e-06
3.23407e-06
2.94017e-06
2.67269e-06
2.42841e-06
2.20543e-06
2.00253e-06
1.81879e-06
1.6534e-06
1.50562e-06
1.37479e-06
1.26054e-06
1.16277e-06
1.08163e-06
1.01699e-06
9.67753e-07
9.31458e-07
9.04608e-07
8.83461e-07
0.000102535
4.2112e-05
3.56014e-05
3.42252e-05
3.35687e-05
3.26222e-05
3.10823e-05
2.89088e-05
2.61948e-05
2.31073e-05
1.9849e-05
1.66273e-05
1.36221e-05
1.09771e-05
8.86757e-06
7.27447e-06
6.05667e-06
5.15383e-06
4.47045e-06
3.93132e-06
3.56423e-06
3.27357e-06
3.0131e-06
2.77518e-06
2.55544e-06
2.35155e-06
2.16232e-06
1.98713e-06
1.82555e-06
1.67723e-06
1.54177e-06
1.41872e-06
1.30759e-06
1.20786e-06
1.11905e-06
1.04065e-06
9.72131e-07
9.12738e-07
8.61393e-07
8.16537e-07
0.00011055
4.48951e-05
3.75836e-05
3.58912e-05
3.50133e-05
3.38515e-05
3.20733e-05
2.96318e-05
2.66255e-05
2.32344e-05
1.96787e-05
1.61876e-05
1.29721e-05
1.01957e-05
7.94093e-06
6.33013e-06
5.14338e-06
4.32579e-06
3.75603e-06
3.33764e-06
3.06412e-06
2.85254e-06
2.66314e-06
2.48877e-06
2.32548e-06
2.1713e-06
2.02532e-06
1.8872e-06
1.75687e-06
1.63435e-06
1.51965e-06
1.41274e-06
1.31351e-06
1.22178e-06
1.1373e-06
1.05975e-06
9.88767e-07
9.23882e-07
8.64513e-07
8.09748e-07
0.000119489
4.80566e-05
3.98787e-05
3.78689e-05
3.67861e-05
3.54279e-05
3.3425e-05
3.07175e-05
2.74052e-05
2.36786e-05
1.97753e-05
1.59458e-05
1.24257e-05
9.40883e-06
7.01563e-06
5.2656e-06
4.14342e-06
3.40953e-06
2.94447e-06
2.63569e-06
2.44951e-06
2.31254e-06
2.19222e-06
2.08151e-06
1.97649e-06
1.87514e-06
1.77652e-06
1.6803e-06
1.58653e-06
1.4954e-06
1.40718e-06
1.32208e-06
1.24034e-06
1.16217e-06
1.0878e-06
1.01741e-06
9.51078e-07
8.88715e-07
8.30245e-07
7.75139e-07
0.000129375
5.15984e-05
4.24937e-05
4.01745e-05
3.89151e-05
3.73954e-05
3.52005e-05
3.22518e-05
2.86443e-05
2.45749e-05
2.02951e-05
1.60764e-05
1.21806e-05
8.83277e-06
6.19135e-06
4.3104e-06
3.11786e-06
2.45593e-06
2.08926e-06
1.87841e-06
1.76854e-06
1.69558e-06
1.63474e-06
1.57935e-06
1.52548e-06
1.47093e-06
1.41467e-06
1.35633e-06
1.29592e-06
1.23377e-06
1.17037e-06
1.10598e-06
1.04039e-06
9.73914e-07
9.07118e-07
8.42101e-07
7.80324e-07
7.22746e-07
6.69648e-07
6.21028e-07
0.00014019
5.55065e-05
4.54213e-05
4.2808e-05
4.141e-05
3.97758e-05
3.74376e-05
3.42921e-05
3.04246e-05
2.60322e-05
2.13758e-05
1.67438e-05
1.24222e-05
8.66812e-06
5.682e-06
3.56591e-06
2.27293e-06
1.60906e-06
1.30408e-06
1.16001e-06
1.10436e-06
1.07667e-06
1.05777e-06
1.0419e-06
1.02478e-06
1.002e-06
9.73267e-07
9.38637e-07
8.96902e-07
8.47545e-07
7.90971e-07
7.32417e-07
6.75869e-07
6.2241e-07
5.72554e-07
5.26521e-07
4.84357e-07
4.45958e-07
4.11079e-07
3.79522e-07
0.000151881
5.97483e-05
4.86364e-05
4.57501e-05
4.42581e-05
4.25646e-05
4.01426e-05
3.6859e-05
3.27846e-05
2.81122e-05
2.31065e-05
1.80667e-05
1.32968e-05
9.08178e-06
5.66252e-06
3.19878e-06
1.70236e-06
9.76624e-07
7.02611e-07
6.30846e-07
6.06568e-07
5.82568e-07
5.52711e-07
5.32372e-07
5.40422e-07
5.22997e-07
4.88758e-07
4.49388e-07
4.12104e-07
3.77688e-07
3.45557e-07
3.15395e-07
2.87175e-07
2.60883e-07
2.36494e-07
2.13974e-07
1.93282e-07
1.74377e-07
1.57241e-07
1.42118e-07
0.000164357
6.4268e-05
5.20917e-05
4.89581e-05
4.74204e-05
4.57272e-05
4.32865e-05
3.9931e-05
3.57134e-05
3.08188e-05
2.55111e-05
2.00948e-05
1.48847e-05
1.0184e-05
6.26412e-06
3.33746e-06
1.49682e-06
6.08112e-07
2.99986e-07
2.19991e-07
2.02023e-07
1.94324e-07
1.86352e-07
1.76676e-07
1.65939e-07
1.53374e-07
1.38997e-07
1.24005e-07
1.09519e-07
9.60991e-08
8.39424e-08
7.30837e-08
6.34813e-08
5.50528e-08
4.76974e-08
4.13083e-08
3.57764e-08
3.09919e-08
2.68492e-08
2.32684e-08
0.00017749
6.89793e-05
5.57112e-05
5.23602e-05
5.08275e-05
4.91962e-05
4.68036e-05
4.34445e-05
3.91508e-05
3.4097e-05
2.85435e-05
2.27963e-05
1.71758e-05
1.19954e-05
7.5447e-06
4.07216e-06
1.74446e-06
5.44381e-07
1.4161e-07
5.863e-08
4.38269e-08
3.90882e-08
3.56598e-08
3.24217e-08
2.92594e-08
2.62528e-08
2.3438e-08
2.08454e-08
1.84972e-08
1.63984e-08
1.45399e-08
1.29049e-08
1.14738e-08
1.02256e-08
9.1402e-09
8.19891e-09
7.38447e-09
6.68115e-09
6.0747e-09
5.5527e-09
0.000191099
7.37536e-05
5.93821e-05
5.58511e-05
5.43784e-05
5.28732e-05
5.05975e-05
4.73051e-05
4.3004e-05
3.7856e-05
3.21155e-05
2.60869e-05
2.00926e-05
1.44517e-05
9.46579e-06
5.40749e-06
2.49571e-06
8.21229e-07
1.79525e-07
4.36902e-08
2.30928e-08
1.84057e-08
1.63461e-08
1.49663e-08
1.38479e-08
1.28631e-08
1.19713e-08
1.11554e-08
1.03982e-08
9.67898e-09
8.98986e-09
8.32933e-09
7.69993e-09
7.10499e-09
6.54757e-09
6.02984e-09
5.55307e-09
5.11759e-09
4.72282e-09
4.36633e-09
0.000204903
7.84033e-05
6.29438e-05
5.92833e-05
5.79342e-05
5.66265e-05
5.45438e-05
5.13963e-05
4.71666e-05
4.20015e-05
3.61468e-05
2.99013e-05
2.35837e-05
1.75118e-05
1.19924e-05
7.31499e-06
3.74022e-06
1.44934e-06
3.91331e-07
9.36466e-08
4.0233e-08
2.82088e-08
2.38111e-08
2.14619e-08
1.97821e-08
1.83799e-08
1.71323e-08
1.59948e-08
1.49525e-08
1.40055e-08
1.31418e-08
1.23069e-08
1.14824e-08
1.06672e-08
9.86918e-09
9.0985e-09
8.36438e-09
7.67428e-09
7.03333e-09
6.44254e-09
0.000218468
8.26644e-05
6.61733e-05
6.24515e-05
6.13001e-05
6.02697e-05
5.84649e-05
5.55519e-05
5.14882e-05
4.64059e-05
4.05413e-05
3.41843e-05
2.76426e-05
2.12214e-05
1.52168e-05
9.91813e-06
5.61088e-06
2.55419e-06
8.67659e-07
2.38136e-07
9.3148e-08
5.85761e-08
4.68974e-08
4.15085e-08
3.80759e-08
3.53292e-08
3.28773e-08
3.06011e-08
2.84658e-08
2.64614e-08
2.45917e-08
2.28974e-08
2.1356e-08
1.98678e-08
1.84005e-08
1.69558e-08
1.55518e-08
1.42092e-08
1.2946e-08
1.17716e-08
0.000231185
8.61907e-05
6.8777e-05
6.50801e-05
6.42065e-05
6.35346e-05
6.20922e-05
5.95043e-05
5.57061e-05
5.08194e-05
4.50748e-05
3.87542e-05
3.21507e-05
2.55461e-05
1.92059e-05
1.33894e-05
8.36934e-06
4.44371e-06
1.88735e-06
6.34486e-07
2.43104e-07
1.34711e-07
9.86508e-08
8.41961e-08
7.65371e-08
7.11e-08
6.64082e-08
6.19972e-08
5.7738e-08
5.3607e-08
4.96123e-08
4.57742e-08
4.21477e-08
3.88453e-08
3.58188e-08
3.29096e-08
3.00731e-08
2.73272e-08
2.47177e-08
2.22897e-08
0.000242307
8.85637e-05
7.04047e-05
6.68371e-05
6.63202e-05
6.60768e-05
6.50646e-05
6.28716e-05
5.94169e-05
5.48206e-05
4.93171e-05
4.31903e-05
3.67249e-05
3.01785e-05
2.3773e-05
1.77079e-05
1.21912e-05
7.48113e-06
3.91177e-06
1.67671e-06
7.07638e-07
3.56172e-07
2.2363e-07
1.7245e-07
1.49749e-07
1.36899e-07
1.27363e-07
1.18928e-07
1.10959e-07
1.03362e-07
9.61673e-08
8.93663e-08
8.28789e-08
7.65809e-08
7.04456e-08
6.45739e-08
5.88095e-08
5.29987e-08
4.72019e-08
4.16208e-08
0.000250875
8.92867e-05
7.06802e-05
6.73791e-05
6.72973e-05
6.75357e-05
6.69932e-05
6.52261e-05
6.21437e-05
5.78739e-05
5.26704e-05
4.68369e-05
4.06694e-05
3.44189e-05
2.82755e-05
2.23738e-05
1.68187e-05
1.17327e-05
7.33217e-06
3.97847e-06
2.05229e-06
1.08837e-06
6.03826e-07
3.85165e-07
2.90699e-07
2.49016e-07
2.28423e-07
2.15268e-07
2.03757e-07
1.91572e-07
1.78039e-07
1.63391e-07
1.48423e-07
1.34199e-07
1.21675e-07
1.11311e-07
1.03065e-07
9.62298e-08
8.88607e-08
7.89078e-08
0.000255261
8.76934e-05
6.91771e-05
6.63246e-05
6.67499e-05
6.75017e-05
6.74398e-05
6.60917e-05
6.33572e-05
5.93784e-05
5.44401e-05
4.88829e-05
4.30351e-05
3.71662e-05
3.14652e-05
2.60401e-05
2.09335e-05
1.61478e-05
1.16713e-05
7.71504e-06
4.93037e-06
3.15059e-06
1.93734e-06
1.18113e-06
7.47148e-07
5.1169e-07
3.85476e-07
3.14897e-07
2.71299e-07
2.40645e-07
2.17257e-07
2.00268e-07
1.90636e-07
1.87863e-07
1.88216e-07
1.86873e-07
1.8155e-07
1.73042e-07
1.63916e-07
1.55669e-07
0.000243444
8.27704e-05
6.58052e-05
6.37672e-05
6.48455e-05
6.61779e-05
6.66021e-05
6.56072e-05
6.30732e-05
5.91676e-05
5.4232e-05
4.86754e-05
4.28914e-05
3.71973e-05
3.18028e-05
2.68052e-05
2.2204e-05
1.79222e-05
1.38268e-05
9.94068e-06
6.93803e-06
4.81826e-06
3.18757e-06
2.02231e-06
1.25496e-06
7.87835e-07
5.19557e-07
3.68931e-07
2.8294e-07
2.31634e-07
1.99712e-07
1.79977e-07
1.6901e-07
1.64504e-07
1.64506e-07
1.68474e-07
1.78607e-07
2.02175e-07
2.69456e-07
5.65043e-07
0.000229467
7.75478e-05
6.2472e-05
6.14554e-05
6.31933e-05
6.48449e-05
6.52099e-05
6.37885e-05
6.05623e-05
5.58352e-05
5.00949e-05
4.38856e-05
3.76967e-05
3.18895e-05
2.66676e-05
2.20895e-05
1.81064e-05
1.46115e-05
1.14832e-05
8.66407e-06
6.44116e-06
4.79117e-06
3.42437e-06
2.35103e-06
1.56099e-06
1.01893e-06
6.71116e-07
4.59831e-07
3.36635e-07
2.68161e-07
2.352e-07
2.29518e-07
2.51472e-07
3.09264e-07
4.18571e-07
5.97168e-07
8.41512e-07
1.07437e-06
1.11934e-06
1.13446e-06
0.000212865
7.05535e-05
5.79801e-05
5.82106e-05
6.07025e-05
6.26839e-05
6.2963e-05
6.11026e-05
5.71928e-05
5.16879e-05
4.52362e-05
3.85133e-05
3.20875e-05
2.63398e-05
2.14463e-05
1.74122e-05
1.41299e-05
1.14366e-05
9.14772e-06
7.13498e-06
5.53728e-06
4.32227e-06
3.27312e-06
2.40015e-06
1.70883e-06
1.1921e-06
8.28957e-07
5.8901e-07
4.40362e-07
3.56509e-07
3.19773e-07
3.21494e-07
3.59583e-07
4.32183e-07
5.29957e-07
6.2625e-07
6.81157e-07
6.72527e-07
6.52211e-07
9.20364e-07
0.00019165
6.23641e-05
5.2576e-05
5.42151e-05
5.76239e-05
6.00916e-05
6.04098e-05
5.81925e-05
5.36618e-05
4.74497e-05
4.038e-05
3.32597e-05
2.672e-05
2.11346e-05
1.66231e-05
1.31163e-05
1.04415e-05
8.39361e-06
6.77447e-06
5.42731e-06
4.36397e-06
3.54337e-06
2.81345e-06
2.18032e-06
1.65225e-06
1.23294e-06
9.1828e-07
6.96652e-07
5.5222e-07
4.69266e-07
4.3541e-07
4.42544e-07
4.82973e-07
5.45853e-07
6.13282e-07
6.63237e-07
6.81914e-07
6.7871e-07
7.06468e-07
1.10981e-06
0.000166791
5.29036e-05
4.61268e-05
4.92566e-05
5.36672e-05
5.67121e-05
5.71601e-05
5.46826e-05
4.96489e-05
4.28835e-05
3.53906e-05
2.80973e-05
2.16708e-05
1.64438e-05
1.24502e-05
9.5298e-06
7.44226e-06
5.94645e-06
4.83912e-06
3.96453e-06
3.28264e-06
2.7532e-06
2.27322e-06
1.84494e-06
1.47489e-06
1.16885e-06
9.28819e-07
7.52127e-07
6.32316e-07
5.61133e-07
5.30202e-07
5.31122e-07
5.53707e-07
5.85392e-07
6.12393e-07
6.24152e-07
6.19429e-07
6.12271e-07
6.53205e-07
1.13195e-06
0.00013972
4.2756e-05
3.89122e-05
4.34517e-05
4.8866e-05
5.25609e-05
5.32587e-05
5.06715e-05
4.53104e-05
3.81939e-05
3.05035e-05
2.32703e-05
1.71679e-05
1.24554e-05
9.05899e-06
6.72467e-06
5.15747e-06
4.1015e-06
3.37382e-06
2.82645e-06
2.40482e-06
2.07638e-06
1.7746e-06
1.49979e-06
1.25629e-06
1.04899e-06
8.81044e-07
7.52861e-07
6.62087e-07
6.04289e-07
5.73654e-07
5.63211e-07
5.64679e-07
5.69064e-07
5.68895e-07
5.60859e-07
5.48139e-07
5.44588e-07
5.97512e-07
1.08922e-06
0.0001128
3.28016e-05
3.13609e-05
3.69778e-05
4.32467e-05
4.7602e-05
4.86719e-05
4.61581e-05
4.06795e-05
3.34367e-05
2.57829e-05
1.88367e-05
1.32484e-05
9.1727e-06
6.41534e-06
4.63863e-06
3.51694e-06
2.80318e-06
2.34031e-06
2.00571e-06
1.75099e-06
1.55241e-06
1.36831e-06
1.19818e-06
1.0445e-06
9.10495e-07
7.98647e-07
7.09853e-07
6.43223e-07
5.96258e-07
5.65201e-07
5.45394e-07
5.31725e-07
5.19419e-07
5.05174e-07
4.88732e-07
4.7426e-07
4.73866e-07
5.29725e-07
9.93162e-07
8.83324e-05
2.39935e-05
2.40425e-05
3.01659e-05
3.6982e-05
4.19439e-05
4.3516e-05
4.1291e-05
3.59251e-05
2.8775e-05
2.13643e-05
1.48887e-05
9.94773e-06
6.56778e-06
4.43343e-06
3.14691e-06
2.38187e-06
1.92026e-06
1.63355e-06
1.43295e-06
1.28193e-06
1.1642e-06
1.05426e-06
9.51335e-07
8.56641e-07
7.71993e-07
6.98902e-07
6.38041e-07
5.89044e-07
5.50566e-07
5.20497e-07
4.96284e-07
4.75346e-07
4.55615e-07
4.36141e-07
4.17797e-07
4.04324e-07
4.05823e-07
4.58803e-07
8.71994e-07
6.78005e-05
1.70421e-05
1.75521e-05
2.3467e-05
3.03776e-05
3.58112e-05
3.80018e-05
3.62932e-05
3.12645e-05
2.4391e-05
1.73749e-05
1.14903e-05
7.2636e-06
4.57479e-06
2.99939e-06
2.11199e-06
1.61327e-06
1.32629e-06
1.15386e-06
1.03613e-06
9.4816e-07
8.79413e-07
8.14627e-07
7.53038e-07
6.9512e-07
6.41782e-07
5.93836e-07
5.51694e-07
5.15241e-07
4.83863e-07
4.56579e-07
4.32251e-07
4.09845e-07
3.88723e-07
3.68955e-07
3.51735e-07
3.40247e-07
3.42783e-07
3.90129e-07
7.45642e-07
5.14757e-05
1.21737e-05
1.23759e-05
1.7407e-05
2.38769e-05
2.95539e-05
3.24364e-05
3.1462e-05
2.69703e-05
2.04967e-05
1.3947e-05
8.69363e-06
5.17448e-06
3.11302e-06
1.99836e-06
1.41098e-06
1.0972e-06
9.26083e-07
8.25751e-07
7.58384e-07
7.08054e-07
6.68374e-07
6.30402e-07
5.93515e-07
5.57838e-07
5.23788e-07
4.91788e-07
4.62097e-07
4.34748e-07
4.09556e-07
3.86195e-07
3.64308e-07
3.43647e-07
3.24217e-07
3.06457e-07
2.91525e-07
2.82027e-07
2.84668e-07
3.24759e-07
6.18711e-07
3.87772e-05
9.13717e-06
8.73047e-06
1.24458e-05
1.79676e-05
2.35664e-05
2.7138e-05
2.70943e-05
2.33152e-05
1.72949e-05
1.11877e-05
6.51712e-06
3.62996e-06
2.0898e-06
1.32542e-06
9.48382e-07
7.56486e-07
6.56073e-07
5.98667e-07
5.60766e-07
5.32297e-07
5.09463e-07
4.8708e-07
4.64681e-07
4.42257e-07
4.19997e-07
3.98134e-07
3.76858e-07
3.56276e-07
3.36424e-07
3.17296e-07
2.98895e-07
2.81307e-07
2.6477e-07
2.49788e-07
2.37343e-07
2.29489e-07
2.31489e-07
2.63417e-07
4.96613e-07
2.88899e-05
7.44337e-06
6.50803e-06
8.84318e-06
1.30808e-05
1.82219e-05
2.23747e-05
2.34357e-05
2.05467e-05
1.49673e-05
9.16892e-06
4.93778e-06
2.54932e-06
1.40339e-06
8.84915e-07
6.45804e-07
5.29952e-07
4.71297e-07
4.38733e-07
4.17606e-07
4.015e-07
3.88209e-07
3.74726e-07
3.60729e-07
3.46175e-07
3.31162e-07
3.15838e-07
3.00357e-07
2.84857e-07
2.69457e-07
2.54276e-07
2.39451e-07
2.25167e-07
2.11705e-07
1.99509e-07
1.89353e-07
1.82794e-07
1.83835e-07
2.07839e-07
3.85748e-07
2.11837e-05
6.53977e-06
5.33669e-06
6.58231e-06
9.53939e-06
1.39482e-05
1.85286e-05
2.08988e-05
1.9142e-05
1.39036e-05
8.08487e-06
3.9842e-06
1.87561e-06
9.75706e-07
6.08208e-07
4.50696e-07
3.78685e-07
3.43494e-07
3.2458e-07
3.12517e-07
3.03097e-07
2.95035e-07
2.86532e-07
2.77367e-07
2.67501e-07
2.56996e-07
2.45961e-07
2.34524e-07
2.22821e-07
2.10988e-07
1.99169e-07
1.87524e-07
1.7624e-07
1.65561e-07
1.55835e-07
1.47636e-07
1.42103e-07
1.42173e-07
1.59163e-07
2.89294e-07
1.50258e-05
5.72654e-06
4.51786e-06
5.10626e-06
7.07574e-06
1.07333e-05
1.57234e-05
1.98952e-05
1.99124e-05
1.49142e-05
8.4096e-06
3.82193e-06
1.61294e-06
7.64803e-07
4.54015e-07
3.31685e-07
2.79162e-07
2.54729e-07
2.42243e-07
2.34588e-07
2.28586e-07
2.23315e-07
2.17585e-07
2.11226e-07
2.04207e-07
1.96572e-07
1.88407e-07
1.79818e-07
1.70924e-07
1.6185e-07
1.52726e-07
1.43691e-07
1.34901e-07
1.26543e-07
1.18871e-07
1.12293e-07
1.07615e-07
1.06926e-07
1.18338e-07
2.10842e-07
7.73569e-06
4.21368e-06
3.21038e-06
3.44284e-06
4.50925e-06
7.06521e-06
1.19308e-05
1.83211e-05
2.16672e-05
1.75192e-05
9.76964e-06
4.16629e-06
1.57768e-06
6.61403e-07
3.58509e-07
2.50183e-07
2.07478e-07
1.89188e-07
1.80587e-07
1.7562e-07
1.71681e-07
1.68089e-07
1.64043e-07
1.59426e-07
1.54224e-07
1.48482e-07
1.42276e-07
1.35699e-07
1.2885e-07
1.21837e-07
1.14765e-07
1.07747e-07
1.00901e-07
9.43619e-08
8.83097e-08
8.30235e-08
7.90534e-08
7.78323e-08
8.49342e-08
1.47453e-07
5.14306e-07
1.0977e-06
1.71247e-06
2.15493e-06
2.48137e-06
3.15828e-06
5.48377e-06
1.1238e-05
1.80235e-05
1.65315e-05
8.75338e-06
3.36464e-06
1.15929e-06
4.69934e-07
2.61159e-07
1.90151e-07
1.63234e-07
1.52064e-07
1.46919e-07
1.43819e-07
1.41029e-07
1.38282e-07
1.35046e-07
1.31261e-07
1.26941e-07
1.22137e-07
1.16924e-07
1.11386e-07
1.05611e-07
9.96936e-08
9.37253e-08
8.78001e-08
8.20162e-08
7.64844e-08
7.13465e-08
6.68218e-08
6.33374e-08
6.20001e-08
6.7105e-08
1.15028e-07
4.83372e-07
7.96874e-07
1.17143e-06
1.62567e-06
2.17881e-06
3.08232e-06
5.08603e-06
9.28045e-06
1.43353e-05
1.28852e-05
6.12448e-06
2.11918e-06
7.19399e-07
3.18099e-07
1.96284e-07
1.53914e-07
1.37134e-07
1.29943e-07
1.26428e-07
1.24016e-07
1.21566e-07
1.19075e-07
1.16125e-07
1.12684e-07
1.08776e-07
1.04453e-07
9.97827e-08
9.48396e-08
8.97021e-08
8.44492e-08
7.916e-08
7.39132e-08
6.87899e-08
6.38799e-08
5.92966e-08
5.52137e-08
5.19692e-08
5.04439e-08
5.40842e-08
9.25465e-08
3.07912e-07
5.66492e-07
9.28119e-07
1.39357e-06
2.05217e-06
3.27953e-06
5.43692e-06
8.73582e-06
1.18029e-05
8.87908e-06
3.44511e-06
1.07146e-06
3.91478e-07
2.0737e-07
1.49321e-07
1.27083e-07
1.17454e-07
1.12845e-07
1.10142e-07
1.07878e-07
1.05401e-07
1.0292e-07
1.00055e-07
9.67874e-08
9.31426e-08
8.9166e-08
8.49147e-08
8.04512e-08
7.58406e-08
7.11486e-08
6.64407e-08
6.1782e-08
5.72396e-08
5.28878e-08
4.8821e-08
4.51841e-08
4.22605e-08
4.07869e-08
4.36335e-08
7.54381e-08
2.11414e-07
3.94777e-07
6.81595e-07
1.14937e-06
2.07009e-06
4.01557e-06
6.55194e-06
8.76179e-06
9.04221e-06
4.49398e-06
1.38028e-06
4.5043e-07
2.16302e-07
1.48243e-07
1.22574e-07
1.10932e-07
1.04891e-07
1.01227e-07
9.84447e-08
9.57772e-08
9.29239e-08
9.02207e-08
8.72518e-08
8.3997e-08
8.04706e-08
7.67053e-08
7.27441e-08
6.86354e-08
6.44305e-08
6.01821e-08
5.59436e-08
5.1769e-08
4.77149e-08
4.38457e-08
4.02439e-08
3.70373e-08
3.44736e-08
3.31869e-08
3.56206e-08
6.27006e-08
1.09546e-07
2.19992e-07
4.60903e-07
1.04194e-06
2.61163e-06
6.08223e-06
8.64006e-06
8.16407e-06
4.18789e-06
1.27142e-06
4.19747e-07
2.11395e-07
1.49493e-07
1.24253e-07
1.11459e-07
1.03861e-07
9.87101e-08
9.47364e-08
9.12386e-08
8.78185e-08
8.43825e-08
8.13196e-08
7.81276e-08
7.47713e-08
7.12479e-08
6.75749e-08
6.37801e-08
5.98985e-08
5.59691e-08
5.20337e-08
4.8136e-08
4.43218e-08
4.06406e-08
3.71502e-08
3.39262e-08
3.10856e-08
2.88525e-08
2.77936e-08
3.00738e-08
5.42132e-08
4.2495e-08
1.05042e-07
3.45393e-07
1.27259e-06
4.49272e-06
1.15611e-05
1.15272e-05
3.62037e-06
9.15347e-07
3.41856e-07
2.04633e-07
1.56739e-07
1.33368e-07
1.19296e-07
1.09687e-07
1.02572e-07
9.69556e-08
9.22296e-08
8.79646e-08
8.3882e-08
7.99665e-08
7.66057e-08
7.32173e-08
6.97496e-08
6.61862e-08
6.25322e-08
5.88055e-08
5.5032e-08
5.12431e-08
4.74738e-08
4.37623e-08
4.01496e-08
3.66815e-08
3.3412e-08
3.04131e-08
2.77954e-08
2.57706e-08
2.48702e-08
2.71202e-08
4.98812e-08
1.56031e-07
4.93842e-07
1.5505e-06
1.12178e-06
8.66235e-07
7.78828e-07
7.60772e-07
7.23734e-07
5.76634e-07
3.5028e-07
1.28239e-07
2.0032e-08
5.07721e-09
4.02722e-09
5.86731e-09
1.0611e-08
1.9891e-08
3.60704e-08
6.54838e-08
1.52869e-07
1.41993e-07
1.41461e-07
1.45608e-07
1.87441e-07
2.15087e-07
2.0467e-07
1.79261e-07
1.48311e-07
1.18238e-07
9.40647e-08
7.65584e-08
5.70392e-08
3.83894e-08
2.26219e-08
1.11711e-08
6.38479e-09
4.37262e-09
3.63438e-09
3.07098e-09
3.04062e-09
9.75438e-09
5.50004e-09
2.03371e-09
1.80016e-09
1.31968e-09
9.27597e-10
6.53646e-10
4.5057e-10
2.99942e-10
1.91891e-10
1.1823e-10
7.06509e-11
4.15901e-11
2.52493e-11
1.60257e-11
8.99497e-12
2.79103e-11
1.54893e-11
8.25848e-12
3.78744e-12
4.9284e-07
5.45188e-07
5.84061e-07
6.25849e-07
6.66464e-07
6.96104e-07
7.09487e-07
7.03161e-07
6.76237e-07
6.29802e-07
5.6655e-07
4.94012e-07
4.19286e-07
3.52486e-07
3.01773e-07
2.6558e-07
2.4479e-07
2.42697e-07
2.53241e-07
2.75219e-07
2.89007e-07
2.52041e-07
1.91773e-07
1.46779e-07
1.08508e-07
7.7192e-08
5.25915e-08
3.39982e-08
2.06392e-08
1.1667e-08
6.10506e-09
2.94754e-09
1.32279e-09
5.70861e-10
2.34875e-10
8.73986e-11
3.61954e-11
1.85349e-11
9.6195e-12
4.63764e-12
1.72392e-06
2.6197e-06
3.08691e-06
3.38972e-06
3.74542e-06
4.16405e-06
4.6e-06
5.01021e-06
5.34959e-06
5.56746e-06
5.60534e-06
5.40263e-06
4.99052e-06
4.4343e-06
3.81096e-06
3.26688e-06
2.87906e-06
2.59293e-06
2.38094e-06
2.14673e-06
1.85794e-06
1.47838e-06
1.14322e-06
8.5421e-07
6.16601e-07
4.26758e-07
2.80804e-07
1.74043e-07
1.0043e-07
5.33188e-08
2.57943e-08
1.12926e-08
4.49868e-09
1.67655e-09
5.71423e-10
1.68365e-10
5.37453e-11
2.42744e-11
1.20591e-11
6.09678e-12
1.12862e-06
1.38949e-06
1.6963e-06
1.96507e-06
2.21132e-06
2.44527e-06
2.65731e-06
2.82134e-06
2.90732e-06
2.8943e-06
2.78126e-06
2.58186e-06
2.31193e-06
2.00723e-06
1.71344e-06
1.46842e-06
1.28709e-06
1.16672e-06
1.07976e-06
9.82373e-07
8.62572e-07
6.95417e-07
5.49783e-07
4.23296e-07
3.1977e-07
2.35598e-07
1.68003e-07
1.14882e-07
7.43491e-08
4.48496e-08
2.4834e-08
1.24101e-08
5.58337e-09
2.31453e-09
8.46452e-10
2.61362e-10
7.89893e-11
3.23209e-11
1.52664e-11
7.85282e-12
8.04417e-07
8.3282e-07
9.37481e-07
1.07163e-06
1.20565e-06
1.32392e-06
1.41732e-06
1.47602e-06
1.49014e-06
1.4545e-06
1.3728e-06
1.26082e-06
1.1294e-06
9.91893e-07
8.63095e-07
7.52935e-07
6.66973e-07
6.05659e-07
5.63498e-07
5.14699e-07
4.48464e-07
3.67279e-07
2.94281e-07
2.31349e-07
1.80641e-07
1.39992e-07
1.07011e-07
7.98701e-08
5.7295e-08
3.87145e-08
2.41399e-08
1.36179e-08
6.85601e-09
3.06167e-09
1.17699e-09
3.78367e-10
1.12715e-10
4.26422e-11
1.91223e-11
9.81931e-12
6.5353e-07
5.80032e-07
5.67298e-07
5.957e-07
6.40857e-07
6.82336e-07
7.07619e-07
7.10687e-07
6.90338e-07
6.49671e-07
5.95923e-07
5.38281e-07
4.8376e-07
4.34419e-07
3.91541e-07
3.54862e-07
3.24141e-07
2.98648e-07
2.76119e-07
2.5453e-07
2.23101e-07
1.85935e-07
1.51866e-07
1.22849e-07
9.95441e-08
8.10668e-08
6.61394e-08
5.35464e-08
4.22439e-08
3.16232e-08
2.1962e-08
1.38519e-08
7.76668e-09
3.80951e-09
1.58549e-09
5.27162e-10
1.56063e-10
5.53944e-11
2.36007e-11
1.19615e-11
5.899e-07
4.63119e-07
3.89628e-07
3.56535e-07
3.46578e-07
3.42744e-07
3.32923e-07
3.11605e-07
2.79143e-07
2.38616e-07
1.97817e-07
1.65232e-07
1.42857e-07
1.29985e-07
1.23098e-07
1.19508e-07
1.16792e-07
1.12932e-07
1.06055e-07
9.83463e-08
8.92113e-08
7.89326e-08
6.91795e-08
6.03076e-08
5.24134e-08
4.55252e-08
3.95909e-08
3.4378e-08
2.92613e-08
2.40459e-08
1.85264e-08
1.29754e-08
8.05408e-09
4.34256e-09
1.98043e-09
7.10992e-10
2.10545e-10
7.08683e-11
2.87226e-11
1.42646e-11
5.34577e-07
3.91434e-07
2.97325e-07
2.39541e-07
2.04783e-07
1.80812e-07
1.58758e-07
1.34566e-07
1.08252e-07
8.44921e-08
6.63961e-08
5.31472e-08
4.38861e-08
3.85504e-08
3.75594e-08
3.89794e-08
4.11139e-08
4.24698e-08
4.20543e-08
4.05418e-08
4.08951e-08
4.14514e-08
4.0612e-08
3.81026e-08
3.45294e-08