/*--------------------------------*- C++ -*----------------------------------*\
| =========                 |                                                 |
| \\      /  F ield         | OpenFOAM: The Open Source CFD Toolbox           |
|  \\    /   O peration     | Version:  2312                                  |
|   \\  /    A nd           | Website:  www.openfoam.com                      |
|    \\/     M anipulation  |                                                 |
\*---------------------------------------------------------------------------*/
FoamFile
{
    version     2.0;
    format      ascii;
    arch        "LSB;label=32;scalar=64";
    class       volScalarField;
    location    "13117.4";
    object      p;
}
// * * * * * * * * * * * * * * * * * * * * * * * * * * * * * * * * * * * * * //

dimensions      [1 -1 -2 0 0 0 0];

internalField   nonuniform List<scalar> 
3780
(
-429.405
-429.541
-429.678
-429.825
-429.98
-430.138
-430.294
-430.446
-430.591
-430.729
-430.866
-430.999
-431.123
-431.236
-431.339
-431.437
-431.53
-431.619
-431.705
-431.788
-431.858
-431.915
-431.97
-432.021
-432.068
-432.111
-432.147
-432.177
-432.2
-432.218
-432.234
-432.245
-432.251
-432.253
-432.254
-432.253
-432.255
-432.262
-432.276
-432.289
-1326.43
-1326.59
-1326.75
-1326.9
-1327.06
-1327.21
-1327.36
-1327.5
-1327.65
-1327.78
-1327.92
-1328.05
-1328.17
-1328.29
-1328.41
-1328.53
-1328.65
-1328.76
-1328.87
-1328.98
-1329.07
-1329.15
-1329.22
-1329.28
-1329.34
-1329.4
-1329.45
-1329.49
-1329.53
-1329.56
-1329.59
-1329.62
-1329.64
-1329.66
-1329.68
-1329.7
-1329.72
-1329.74
-1329.76
-1329.79
-2281.7
-2281.87
-2282.04
-2282.2
-2282.37
-2282.54
-2282.7
-2282.86
-2283.01
-2283.16
-2283.31
-2283.46
-2283.6
-2283.75
-2283.89
-2284.04
-2284.18
-2284.32
-2284.46
-2284.59
-2284.7
-2284.79
-2284.87
-2284.95
-2285.01
-2285.08
-2285.14
-2285.19
-2285.23
-2285.27
-2285.31
-2285.34
-2285.37
-2285.4
-2285.42
-2285.44
-2285.46
-2285.48
-2285.49
-2285.51
-3299.12
-3299.32
-3299.5
-3299.69
-3299.88
-3300.06
-3300.24
-3300.41
-3300.58
-3300.75
-3300.91
-3301.07
-3301.24
-3301.4
-3301.57
-3301.74
-3301.9
-3302.07
-3302.23
-3302.38
-3302.5
-3302.6
-3302.69
-3302.77
-3302.84
-3302.91
-3302.97
-3303.03
-3303.08
-3303.12
-3303.16
-3303.2
-3303.24
-3303.27
-3303.29
-3303.31
-3303.33
-3303.35
-3303.36
-3303.37
-4382.74
-4382.96
-4383.17
-4383.38
-4383.58
-4383.78
-4383.98
-4384.17
-4384.36
-4384.55
-4384.73
-4384.91
-4385.09
-4385.28
-4385.46
-4385.65
-4385.83
-4386.02
-4386.19
-4386.35
-4386.48
-4386.59
-4386.68
-4386.76
-4386.84
-4386.91
-4386.97
-4387.03
-4387.08
-4387.13
-4387.17
-4387.21
-4387.24
-4387.28
-4387.3
-4387.32
-4387.34
-4387.35
-4387.35
-4387.36
-5536.85
-5537.1
-5537.34
-5537.57
-5537.8
-5538.03
-5538.25
-5538.47
-5538.68
-5538.88
-5539.08
-5539.28
-5539.47
-5539.67
-5539.87
-5540.07
-5540.27
-5540.46
-5540.64
-5540.81
-5540.94
-5541.05
-5541.14
-5541.22
-5541.3
-5541.37
-5541.43
-5541.49
-5541.54
-5541.59
-5541.63
-5541.67
-5541.71
-5541.74
-5541.76
-5541.78
-5541.79
-5541.8
-5541.8
-5541.8
-6766.04
-6766.33
-6766.6
-6766.86
-6767.12
-6767.37
-6767.62
-6767.86
-6768.09
-6768.32
-6768.53
-6768.75
-6768.96
-6769.16
-6769.37
-6769.57
-6769.77
-6769.97
-6770.15
-6770.32
-6770.46
-6770.56
-6770.65
-6770.73
-6770.8
-6770.87
-6770.93
-6770.99
-6771.04
-6771.09
-6771.13
-6771.17
-6771.2
-6771.23
-6771.26
-6771.28
-6771.29
-6771.29
-6771.29
-6771.28
-8075.18
-8075.51
-8075.81
-8076.11
-8076.4
-8076.68
-8076.96
-8077.22
-8077.48
-8077.72
-8077.96
-8078.19
-8078.41
-8078.62
-8078.83
-8079.03
-8079.23
-8079.42
-8079.6
-8079.77
-8079.9
-8080
-8080.09
-8080.17
-8080.24
-8080.3
-8080.36
-8080.42
-8080.47
-8080.51
-8080.55
-8080.59
-8080.63
-8080.65
-8080.68
-8080.69
-8080.7
-8080.7
-8080.7
-8080.68
-9469.45
-9469.82
-9470.17
-9470.5
-9470.82
-9471.14
-9471.44
-9471.73
-9472.01
-9472.28
-9472.53
-9472.77
-9473
-9473.22
-9473.43
-9473.63
-9473.82
-9474
-9474.17
-9474.34
-9474.47
-9474.56
-9474.65
-9474.73
-9474.8
-9474.86
-9474.92
-9474.97
-9475.02
-9475.06
-9475.1
-9475.14
-9475.17
-9475.2
-9475.22
-9475.24
-9475.25
-9475.25
-9475.23
-9475.22
-10954.4
-10954.8
-10955.2
-10955.6
-10955.9
-10956.3
-10956.6
-10956.9
-10957.2
-10957.5
-10957.8
-10958
-10958.3
-10958.5
-10958.7
-10958.9
-10959.1
-10959.2
-10959.4
-10959.6
-10959.7
-10959.8
-10959.9
-10960
-10960
-10960.1
-10960.1
-10960.2
-10960.2
-10960.3
-10960.3
-10960.4
-10960.4
-10960.4
-10960.4
-10960.5
-10960.5
-10960.5
-10960.4
-10960.4
-12535.8
-12536.3
-12536.7
-12537.1
-12537.5
-12537.9
-12538.3
-12538.6
-12539
-12539.3
-12539.6
-12539.8
-12540.1
-12540.3
-12540.5
-12540.7
-12540.9
-12541
-12541.2
-12541.4
-12541.5
-12541.6
-12541.7
-12541.7
-12541.8
-12541.9
-12541.9
-12542
-12542
-12542
-12542.1
-12542.1
-12542.2
-12542.2
-12542.2
-12542.2
-12542.2
-12542.2
-12542.2
-12542.2
-14220
-14220.5
-14221
-14221.5
-14221.9
-14222.4
-14222.7
-14223.1
-14223.5
-14223.8
-14224.1
-14224.4
-14224.7
-14224.9
-14225.1
-14225.3
-14225.5
-14225.7
-14225.8
-14226
-14226.1
-14226.2
-14226.3
-14226.4
-14226.5
-14226.5
-14226.6
-14226.6
-14226.6
-14226.7
-14226.7
-14226.8
-14226.8
-14226.8
-14226.9
-14226.9
-14226.9
-14226.9
-14226.9
-14226.9
-15813
-15812.7
-15812.5
-15812.3
-15812.1
-15811.9
-15811.8
-15811.7
-15811.5
-15811.4
-15811.3
-15811.2
-15811.1
-15811
-15810.8
-15810.7
-15810.6
-15810.5
-15810.4
-15810.3
-15810.2
-15810.2
-15810.2
-15810.1
-15810.1
-15810.1
-15810
-15810
-15810
-15810
-15809.9
-15809.9
-15809.9
-15809.9
-15809.9
-15809.9
-15809.9
-15809.9
-15809.9
-15810
-17287.8
-17287.6
-17287.3
-17287.1
-17286.9
-17286.7
-17286.6
-17286.4
-17286.3
-17286.2
-17286.1
-17285.9
-17285.8
-17285.7
-17285.6
-17285.5
-17285.4
-17285.3
-17285.2
-17285.1
-17285
-17285
-17285
-17284.9
-17284.9
-17284.9
-17284.8
-17284.8
-17284.8
-17284.7
-17284.7
-17284.7
-17284.6
-17284.6
-17284.6
-17284.6
-17284.6
-17284.6
-17284.6
-17284.6
-18762.6
-18762.4
-18762.1
-18761.9
-18761.7
-18761.5
-18761.4
-18761.2
-18761.1
-18760.9
-18760.8
-18760.7
-18760.6
-18760.5
-18760.4
-18760.3
-18760.1
-18760
-18759.9
-18759.8
-18759.8
-18759.7
-18759.7
-18759.7
-18759.6
-18759.6
-18759.6
-18759.6
-18759.5
-18759.5
-18759.5
-18759.5
-18759.4
-18759.4
-18759.4
-18759.4
-18759.4
-18759.4
-18759.4
-18759.4
-20237.4
-20237.2
-20236.9
-20236.7
-20236.5
-20236.3
-20236.1
-20236
-20235.8
-20235.7
-20235.5
-20235.4
-20235.3
-20235.2
-20235.1
-20235
-20234.9
-20234.8
-20234.7
-20234.6
-20234.5
-20234.5
-20234.4
-20234.4
-20234.3
-20234.3
-20234.3
-20234.3
-20234.2
-20234.2
-20234.2
-20234.2
-20234.1
-20234.1
-20234.1
-20234.1
-20234.1
-20234.1
-20234
-20234
-21712.1
-21711.9
-21711.6
-21711.4
-21711.2
-21711
-21710.8
-21710.7
-21710.5
-21710.4
-21710.2
-21710.1
-21710
-21709.9
-21709.8
-21709.7
-21709.5
-21709.4
-21709.3
-21709.2
-21709.2
-21709.1
-21709.1
-21709
-21709
-21709
-21709
-21708.9
-21708.9
-21708.9
-21708.9
-21708.9
-21708.8
-21708.8
-21708.8
-21708.8
-21708.8
-21708.7
-21708.7
-21708.7
-23186.8
-23186.6
-23186.3
-23186.1
-23185.9
-23185.7
-23185.5
-23185.3
-23185.2
-23185
-23184.9
-23184.7
-23184.6
-23184.5
-23184.4
-23184.3
-23184.2
-23184.1
-23184
-23183.9
-23183.8
-23183.8
-23183.7
-23183.7
-23183.6
-23183.6
-23183.6
-23183.6
-23183.5
-23183.5
-23183.5
-23183.5
-23183.5
-23183.4
-23183.4
-23183.4
-23183.4
-23183.4
-23183.4
-23183.4
-24661.5
-24661.2
-24660.9
-24660.7
-24660.5
-24660.3
-24660.1
-24659.9
-24659.8
-24659.6
-24659.5
-24659.3
-24659.2
-24659.1
-24659
-24658.9
-24658.8
-24658.7
-24658.6
-24658.5
-24658.4
-24658.3
-24658.3
-24658.2
-24658.2
-24658.2
-24658.1
-24658.1
-24658.1
-24658.1
-24658.1
-24658
-24658
-24658
-24658
-24658
-24658
-24658
-24657.9
-24657.9
-26136.1
-26135.8
-26135.5
-26135.3
-26135.1
-26134.9
-26134.7
-26134.5
-26134.3
-26134.2
-26134
-26133.9
-26133.8
-26133.7
-26133.5
-26133.4
-26133.3
-26133.2
-26133.1
-26133
-26132.9
-26132.9
-26132.8
-26132.8
-26132.7
-26132.7
-26132.7
-26132.6
-26132.6
-26132.6
-26132.6
-26132.5
-26132.5
-26132.5
-26132.5
-26132.5
-26132.5
-26132.4
-26132.4
-26132.4
-27610.6
-27610.3
-27610.1
-27609.9
-27609.6
-27609.4
-27609.2
-27609
-27608.9
-27608.7
-27608.6
-27608.4
-27608.3
-27608.1
-27608
-27607.9
-27607.8
-27607.7
-27607.6
-27607.5
-27607.4
-27607.3
-27607.3
-27607.2
-27607.2
-27607.1
-27607.1
-27607.1
-27607
-27607
-27607
-27607
-27606.9
-27606.9
-27606.9
-27606.9
-27606.9
-27606.8
-27606.8
-27606.8
-29085.1
-29084.8
-29084.6
-29084.4
-29084.1
-29083.9
-29083.7
-29083.5
-29083.3
-29083.2
-29083
-29082.9
-29082.7
-29082.6
-29082.4
-29082.3
-29082.2
-29082.1
-29082
-29081.9
-29081.8
-29081.7
-29081.6
-29081.6
-29081.5
-29081.5
-29081.4
-29081.4
-29081.4
-29081.3
-29081.3
-29081.3
-29081.3
-29081.2
-29081.2
-29081.2
-29081.2
-29081.2
-29081.1
-29081.1
-30559.6
-30559.3
-30559
-30558.8
-30558.6
-30558.3
-30558.1
-30557.9
-30557.7
-30557.6
-30557.4
-30557.2
-30557.1
-30556.9
-30556.8
-30556.7
-30556.5
-30556.4
-30556.3
-30556.2
-30556.1
-30556
-30555.9
-30555.9
-30555.8
-30555.8
-30555.7
-30555.7
-30555.6
-30555.6
-30555.6
-30555.5
-30555.5
-30555.5
-30555.5
-30555.4
-30555.4
-30555.4
-30555.4
-30555.3
-32033.9
-32033.7
-32033.4
-32033.2
-32032.9
-32032.7
-32032.5
-32032.3
-32032.1
-32031.9
-32031.7
-32031.6
-32031.4
-32031.2
-32031.1
-32030.9
-32030.8
-32030.7
-32030.6
-32030.4
-32030.3
-32030.2
-32030.2
-32030.1
-32030
-32030
-32029.9
-32029.9
-32029.8
-32029.8
-32029.8
-32029.7
-32029.7
-32029.7
-32029.6
-32029.6
-32029.6
-32029.6
-32029.5
-32029.5
-33508.3
-33508
-33507.8
-33507.5
-33507.3
-33507
-33506.8
-33506.6
-33506.4
-33506.2
-33506
-33505.8
-33505.7
-33505.5
-33505.3
-33505.2
-33505
-33504.9
-33504.8
-33504.6
-33504.5
-33504.4
-33504.4
-33504.3
-33504.2
-33504.2
-33504.1
-33504.1
-33504
-33504
-33503.9
-33503.9
-33503.8
-33503.8
-33503.8
-33503.7
-33503.7
-33503.7
-33503.7
-33503.6
-34982.6
-34982.3
-34982
-34981.8
-34981.5
-34981.3
-34981.1
-34980.9
-34980.6
-34980.4
-34980.2
-34980.1
-34979.9
-34979.7
-34979.5
-34979.4
-34979.2
-34979.1
-34978.9
-34978.8
-34978.7
-34978.6
-34978.5
-34978.4
-34978.3
-34978.3
-34978.2
-34978.2
-34978.1
-34978.1
-34978
-34978
-34977.9
-34977.9
-34977.9
-34977.8
-34977.8
-34977.8
-34977.7
-34977.7
-36456.8
-36456.5
-36456.3
-36456
-36455.8
-36455.5
-36455.3
-36455.1
-36454.9
-36454.6
-36454.4
-36454.2
-36454
-36453.9
-36453.7
-36453.5
-36453.3
-36453.2
-36453
-36452.9
-36452.8
-36452.7
-36452.6
-36452.5
-36452.4
-36452.4
-36452.3
-36452.2
-36452.2
-36452.1
-36452.1
-36452
-36452
-36451.9
-36451.9
-36451.9
-36451.8
-36451.8
-36451.8
-36451.7
-37931
-37930.7
-37930.5
-37930.2
-37930
-37929.7
-37929.5
-37929.3
-37929
-37928.8
-37928.6
-37928.4
-37928.2
-37928
-37927.8
-37927.6
-37927.4
-37927.2
-37927.1
-37926.9
-37926.8
-37926.7
-37926.6
-37926.5
-37926.4
-37926.4
-37926.3
-37926.2
-37926.2
-37926.1
-37926.1
-37926
-37926
-37925.9
-37925.9
-37925.8
-37925.8
-37925.8
-37925.7
-37925.7
-39405.2
-39404.9
-39404.6
-39404.4
-39404.1
-39403.9
-39403.6
-39403.4
-39403.1
-39402.9
-39402.7
-39402.5
-39402.3
-39402
-39401.8
-39401.6
-39401.5
-39401.3
-39401.1
-39400.9
-39400.8
-39400.7
-39400.6
-39400.5
-39400.4
-39400.3
-39400.3
-39400.2
-39400.1
-39400.1
-39400
-39399.9
-39399.9
-39399.8
-39399.8
-39399.7
-39399.7
-39399.7
-39399.6
-39399.6
-40879.3
-40879
-40878.7
-40878.5
-40878.2
-40877.9
-40877.7
-40877.4
-40877.2
-40877
-40876.7
-40876.5
-40876.3
-40876.1
-40875.8
-40875.6
-40875.4
-40875.2
-40875
-40874.9
-40874.7
-40874.6
-40874.5
-40874.4
-40874.3
-40874.2
-40874.1
-40874.1
-40874
-40873.9
-40873.9
-40873.8
-40873.7
-40873.7
-40873.6
-40873.6
-40873.5
-40873.5
-40873.4
-40873.4
-42353.3
-42353
-42352.8
-42352.5
-42352.2
-42352
-42351.7
-42351.4
-42351.2
-42350.9
-42350.7
-42350.5
-42350.2
-42350
-42349.8
-42349.5
-42349.3
-42349.1
-42348.9
-42348.7
-42348.6
-42348.4
-42348.3
-42348.2
-42348.1
-42348
-42347.9
-42347.9
-42347.8
-42347.7
-42347.7
-42347.6
-42347.5
-42347.5
-42347.4
-42347.4
-42347.3
-42347.2
-42347.2
-42347.1
-43827.3
-43827
-43826.7
-43826.5
-43826.2
-43825.9
-43825.7
-43825.4
-43825.2
-43824.9
-43824.7
-43824.4
-43824.2
-43823.9
-43823.7
-43823.4
-43823.2
-43823
-43822.7
-43822.5
-43822.3
-43822.2
-43822.1
-43822
-43821.9
-43821.8
-43821.7
-43821.6
-43821.5
-43821.4
-43821.4
-43821.3
-43821.2
-43821.2
-43821.1
-43821.1
-43821
-43820.9
-43820.9
-43820.8
-45294.2
-45294.2
-45294.2
-45294.2
-45294.2
-45294.2
-45294.2
-45294.2
-45294.3
-45294.3
-45294.3
-45294.3
-45294.3
-45294.3
-45294.3
-45294.3
-45294.4
-45294.4
-45294.4
-45294.4
-45294.4
-45294.4
-45294.4
-45294.4
-45294.4
-45294.5
-45294.5
-45294.5
-45294.5
-45294.6
-45294.6
-45294.6
-45294.7
-45294.7
-45294.7
-45294.7
-45294.7
-45294.8
-45294.8
-45294.8
-46713.3
-46713.3
-46713.3
-46713.3
-46713.3
-46713.3
-46713.3
-46713.3
-46713.3
-46713.3
-46713.4
-46713.4
-46713.4
-46713.4
-46713.4
-46713.4
-46713.4
-46713.4
-46713.4
-46713.4
-46713.4
-46713.4
-46713.4
-46713.4
-46713.4
-46713.4
-46713.4
-46713.5
-46713.5
-46713.5
-46713.5
-46713.5
-46713.5
-46713.5
-46713.5
-46713.5
-46713.5
-46713.5
-46713.5
-46713.6
-48091.7
-48091.7
-48091.7
-48091.7
-48091.7
-48091.7
-48091.7
-48091.7
-48091.7
-48091.8
-48091.8
-48091.8
-48091.8
-48091.8
-48091.8
-48091.8
-48091.8
-48091.8
-48091.8
-48091.8
-48091.8
-48091.8
-48091.8
-48091.8
-48091.8
-48091.8
-48091.8
-48091.9
-48091.9
-48091.9
-48091.9
-48091.9
-48091.9
-48091.9
-48091.9
-48091.9
-48091.9
-48091.9
-48091.9
-48091.9
-49430.8
-49430.8
-49430.8
-49430.8
-49430.8
-49430.8
-49430.8
-49430.8
-49430.8
-49430.8
-49430.9
-49430.9
-49430.9
-49430.9
-49430.9
-49430.9
-49430.9
-49430.9
-49430.9
-49430.9
-49430.9
-49430.9
-49430.9
-49430.9
-49430.9
-49430.9
-49430.9
-49430.9
-49430.9
-49430.9
-49430.9
-49430.9
-49430.9
-49430.9
-49430.9
-49430.9
-49430.9
-49430.9
-49430.9
-49430.9
-50731.6
-50731.6
-50731.6
-50731.6
-50731.6
-50731.6
-50731.6
-50731.6
-50731.6
-50731.7
-50731.7
-50731.7
-50731.7
-50731.7
-50731.7
-50731.7
-50731.7
-50731.7
-50731.7
-50731.7
-50731.7
-50731.7
-50731.7
-50731.7
-50731.7
-50731.7
-50731.7
-50731.7
-50731.7
-50731.7
-50731.7
-50731.7
-50731.7
-50731.7
-50731.7
-50731.7
-50731.7
-50731.7
-50731.7
-50731.7
-51995.2
-51995.2
-51995.3
-51995.3
-51995.3
-51995.3
-51995.3
-51995.3
-51995.3
-51995.3
-51995.3
-51995.4
-51995.4
-51995.4
-51995.4
-51995.4
-51995.4
-51995.4
-51995.4
-51995.4
-51995.4
-51995.4
-51995.4
-51995.4
-51995.4
-51995.4
-51995.3
-51995.3
-51995.3
-51995.3
-51995.3
-51995.3
-51995.3
-51995.3
-51995.3
-51995.3
-51995.3
-51995.3
-51995.3
-51995.3
-53222.8
-53222.8
-53222.8
-53222.9
-53222.9
-53222.9
-53222.9
-53222.9
-53222.9
-53222.9
-53222.9
-53223
-53223
-53223
-53223
-53223
-53223
-53223
-53223
-53223
-53223
-53223
-53223
-53222.9
-53222.9
-53222.9
-53222.9
-53222.9
-53222.9
-53222.9
-53222.9
-53222.9
-53222.9
-53222.9
-53222.9
-53222.9
-53222.9
-53222.9
-53222.9
-53222.9
-54415.4
-54415.4
-54415.4
-54415.4
-54415.4
-54415.4
-54415.4
-54415.5
-54415.5
-54415.5
-54415.5
-54415.5
-54415.5
-54415.5
-54415.5
-54415.5
-54415.5
-54415.5
-54415.5
-54415.5
-54415.5
-54415.5
-54415.5
-54415.5
-54415.5
-54415.5
-54415.5
-54415.5
-54415.5
-54415.5
-54415.5
-54415.5
-54415.5
-54415.5
-54415.5
-54415.5
-54415.5
-54415.5
-54415.5
-54415.5
-55573.9
-55573.9
-55573.9
-55573.9
-55573.9
-55573.9
-55573.9
-55574
-55574
-55574
-55574
-55574
-55574
-55574
-55574
-55574
-55574
-55574
-55574
-55574
-55574
-55574
-55574
-55574
-55574
-55574
-55574
-55574
-55574
-55574
-55574
-55574
-55574
-55574
-55574
-55574
-55574
-55574
-55574
-55574
-56699.3
-56699.3
-56699.3
-56699.3
-56699.3
-56699.4
-56699.4
-56699.4
-56699.4
-56699.4
-56699.4
-56699.4
-56699.4
-56699.4
-56699.4
-56699.4
-56699.4
-56699.4
-56699.4
-56699.4
-56699.4
-56699.4
-56699.4
-56699.4
-56699.4
-56699.4
-56699.4
-56699.4
-56699.4
-56699.4
-56699.4
-56699.4
-56699.4
-56699.4
-56699.4
-56699.4
-56699.4
-56699.4
-56699.4
-56699.4
-57792.6
-57792.6
-57792.6
-57792.6
-57792.7
-57792.7
-57792.7
-57792.7
-57792.7
-57792.7
-57792.7
-57792.7
-57792.8
-57792.8
-57792.8
-57792.8
-57792.8
-57792.7
-57792.7
-57792.7
-57792.7
-57792.7
-57792.7
-57792.7
-57792.7
-57792.7
-57792.7
-57792.7
-57792.7
-57792.7
-57792.7
-57792.7
-57792.7
-57792.7
-57792.7
-57792.7
-57792.7
-57792.7
-57792.7
-57792.7
-58854.6
-58854.6
-58854.7
-58854.7
-58854.7
-58854.7
-58854.8
-58854.8
-58854.8
-58854.8
-58854.8
-58854.8
-58854.8
-58854.9
-58854.9
-58854.8
-58854.8
-58854.8
-58854.8
-58854.8
-58854.8
-58854.8
-58854.8
-58854.8
-58854.8
-58854.8
-58854.8
-58854.8
-58854.8
-58854.8
-58854.8
-58854.8
-58854.8
-58854.8
-58854.8
-58854.8
-58854.8
-58854.8
-58854.8
-58854.8
-59886.3
-59886.3
-59886.4
-59886.4
-59886.5
-59886.5
-59886.5
-59886.6
-59886.6
-59886.6
-59886.6
-59886.6
-59886.6
-59886.6
-59886.6
-59886.6
-59886.6
-59886.6
-59886.6
-59886.6
-59886.6
-59886.6
-59886.6
-59886.6
-59886.6
-59886.6
-59886.6
-59886.6
-59886.6
-59886.6
-59886.6
-59886.6
-59886.6
-59886.6
-59886.6
-59886.6
-59886.6
-59886.6
-59886.6
-59886.6
-60889.1
-60889.1
-60889.1
-60889.1
-60889.1
-60889
-60889
-60889
-60889
-60889
-60889
-60889
-60889
-60889
-60889
-60889
-60888.9
-60888.9
-60888.9
-60888.9
-60888.9
-60888.9
-60888.9
-60888.9
-60888.9
-60888.9
-60888.9
-60888.9
-60888.9
-60888.9
-60888.9
-60888.9
-60888.9
-60888.9
-60888.9
-60888.9
-60888.9
-60888.9
-60888.9
-60888.9
-61864.1
-61864
-61863.8
-61863.6
-61863.4
-61863.2
-61863
-61862.9
-61862.7
-61862.7
-61862.7
-61862.7
-61862.7
-61862.7
-61862.7
-61862.7
-61862.7
-61862.7
-61862.7
-61862.7
-61862.7
-61862.7
-61862.7
-61862.7
-61862.6
-61862.6
-61862.6
-61862.6
-61862.6
-61862.6
-61862.6
-61862.6
-61862.6
-61862.6
-61862.6
-61862.6
-61862.6
-61862.6
-61862.6
-61862.6
-62566.6
-62566.5
-62566.3
-62566.1
-62566
-62565.8
-62565.6
-62565.5
-62565.4
-62565.4
-62565.5
-62565.5
-62565.5
-62565.5
-62565.5
-62565.5
-62565.5
-62565.5
-62565.5
-62565.5
-62565.5
-62565.5
-62565.5
-62565.5
-62565.5
-62565.5
-62565.5
-62565.5
-62565.5
-62565.5
-62565.5
-62565.5
-62565.5
-62565.5
-62565.5
-62565.5
-62565.5
-62565.5
-62565.5
-62565.5
-63020.3
-63020.3
-63020.2
-63020.1
-63020
-63019.9
-63019.8
-63019.8
-63019.7
-63019.7
-63019.7
-63019.7
-63019.8
-63019.8
-63019.8
-63019.8
-63019.8
-63019.7
-63019.7
-63019.7
-63019.7
-63019.7
-63019.7
-63019.7
-63019.7
-63019.7
-63019.7
-63019.7
-63019.7
-63019.7
-63019.7
-63019.7
-63019.7
-63019.7
-63019.7
-63019.7
-63019.7
-63019.7
-63019.7
-63019.7
-63491.2
-63491.2
-63491.1
-63491.1
-63491
-63491
-63490.9
-63490.9
-63490.9
-63490.9
-63490.9
-63490.9
-63490.9
-63490.9
-63490.9
-63490.9
-63490.9
-63490.9
-63490.9
-63490.9
-63490.9
-63490.9
-63490.9
-63490.9
-63490.9
-63490.9
-63490.9
-63490.9
-63490.9
-63490.9
-63490.9
-63490.9
-63490.9
-63490.9
-63490.9
-63490.9
-63490.9
-63490.9
-63490.9
-63490.9
-63979.7
-63979.7
-63979.6
-63979.6
-63979.6
-63979.5
-63979.5
-63979.5
-63979.5
-63979.6
-63979.6
-63979.6
-63979.6
-63979.6
-63979.6
-63979.6
-63979.6
-63979.6
-63979.6
-63979.6
-63979.6
-63979.5
-63979.5
-63979.5
-63979.5
-63979.5
-63979.5
-63979.5
-63979.5
-63979.5
-63979.5
-63979.5
-63979.5
-63979.5
-63979.5
-63979.5
-63979.5
-63979.5
-63979.5
-63979.5
-64486.5
-64486.5
-64486.4
-64486.4
-64486.3
-64486.3
-64486.3
-64486.3
-64486.4
-64486.4
-64486.4
-64486.4
-64486.4
-64486.4
-64486.4
-64486.4
-64486.4
-64486.4
-64486.4
-64486.4
-64486.4
-64486.3
-64486.3
-64486.3
-64486.3
-64486.3
-64486.3
-64486.3
-64486.3
-64486.3
-64486.3
-64486.3
-64486.3
-64486.3
-64486.3
-64486.3
-64486.3
-64486.3
-64486.3
-64486.3
-65012.4
-65012.4
-65012.3
-65012.2
-65012.1
-65012.1
-65012
-65012
-65012
-65012
-65012
-65012
-65012
-65012
-65012
-65012
-65012
-65012
-65012
-65012
-65012
-65012
-65012
-65012
-65012
-65012
-65012
-65012
-65012
-65012
-65012
-65012
-65012
-65012
-65012
-65012
-65012
-65012
-65012
-65012
-15813.9
-17288.7
-18763.6
-20238.4
-21713.2
-23188
-24662.8
-26137.5
-27612.1
-29086.6
-30561.1
-32035.5
-33510
-34984.4
-36458.8
-37933.2
-39407.6
-40881.9
-42356.3
-43830.7
-15908.4
-16097.7
-16292.4
-16492.6
-16698.5
-16910.2
-17128
-17352
-17582.3
-17819.2
-18062.9
-18313.5
-18571.3
-18836.4
-19109
-19389.5
-19677.9
-19974.6
-20279.7
-20593.6
-20916.4
-21248.5
-21590
-21941.3
-22302.5
-22674.1
-23056.3
-23449.4
-23853.8
-24269.6
-24697.3
-25137.3
-25589.8
-26055.2
-26533.9
-27026.2
-27532.6
-28053.5
-28589.3
-29140.3
-17379.4
-17560.5
-17746.8
-17938.4
-18135.5
-18338.1
-18546.5
-18760.9
-18981.3
-19208.1
-19441.2
-19681
-19927.7
-20181.4
-20442.3
-20710.6
-20986.6
-21270.4
-21562.4
-21862.7
-22171.6
-22489.2
-22815.9
-23152
-23497.6
-23853.1
-24218.7
-24594.8
-24981.7
-25379.6
-25788.8
-26209.7
-26642.7
-27088
-27546
-28017.1
-28501.7
-29000
-29512.7
-30039.9
-18850.1
-19023.1
-19201
-19384
-19572.1
-19765.7
-19964.7
-20169.4
-20379.9
-20596.4
-20819
-21048
-21283.6
-21525.8
-21774.9
-22031.1
-22294.7
-22565.7
-22844.5
-23131.2
-23426.1
-23729.5
-24041.4
-24362.3
-24692.3
-25031.8
-25381
-25740.1
-26109.5
-26489.4
-26880.2
-27282.1
-27695.5
-28120.8
-28558.1
-29008
-29470.7
-29946.6
-30436.1
-30939.5
-20320.9
-20485.7
-20655.2
-20829.5
-21008.8
-21193.2
-21382.8
-21577.8
-21778.4
-21984.7
-22196.8
-22415
-22639.4
-22870.2
-23107.5
-23351.6
-23602.7
-23860.9
-24126.6
-24399.7
-24680.7
-24969.7
-25266.9
-25572.7
-25887.1
-26210.5
-26543.2
-26885.4
-27237.3
-27599.3
-27971.6
-28354.5
-28748.4
-29153.5
-29570.2
-29998.8
-30439.7
-30893.1
-31359.5
-31839.2
-21791.7
-21948.3
-22109.4
-22275.1
-22445.5
-22620.7
-22801
-22986.3
-23176.9
-23373
-23574.6
-23781.9
-23995.2
-24214.5
-24440.1
-24672.1
-24910.7
-25156.2
-25408.6
-25668.2
-25935.3
-26209.9
-26492.4
-26783
-27081.9
-27389.2
-27705.4
-28030.6
-28365.1
-28709.1
-29063
-29426.9
-29801.3
-30186.3
-30582.4
-30989.7
-31408.7
-31839.6
-32282.9
-32738.8
-23262.5
-23410.9
-23563.7
-23720.7
-23882.2
-24048.3
-24219.1
-24394.8
-24575.4
-24761.2
-24952.3
-25148.9
-25351
-25558.9
-25772.7
-25992.6
-26218.7
-26451.4
-26690.6
-26936.7
-27189.8
-27450.2
-27717.9
-27993.3
-28276.6
-28568
-28867.6
-29175.9
-29492.9
-29819
-30154.4
-30499.3
-30854.2
-31219.1
-31594.5
-31980.6
-32377.7
-32786.2
-33206.3
-33638.4
-24733.2
-24873.5
-25017.8
-25166.2
-25318.8
-25475.8
-25637.2
-25803.2
-25973.9
-26149.5
-26330.1
-26515.8
-26706.8
-26903.2
-27105.2
-27313
-27526.8
-27746.6
-27972.7
-28205.2
-28444.4
-28690.4
-28943.4
-29203.7
-29471.3
-29746.7
-30029.8
-30321.1
-30620.7
-30928.8
-31245.8
-31571.7
-31907
-32251.9
-32606.6
-32971.5
-33346.7
-33732.7
-34129.7
-34538
-26203.8
-26336
-26472
-26611.7
-26755.5
-26903.3
-27055.3
-27211.6
-27372.4
-27537.7
-27707.8
-27882.7
-28062.5
-28247.5
-28437.8
-28633.5
-28834.8
-29041.8
-29254.7
-29473.7
-29698.9
-29930.6
-30168.9
-30414
-30666.1
-30925.4
-31192.1
-31466.4
-31748.5
-32038.7
-32337.2
-32644.2
-32959.9
-33284.7
-33618.7
-33962.3
-34315.7
-34679.2
-35053.1
-35437.6
-27674.4
-27798.5
-27926
-28057.1
-28192
-28330.7
-28473.3
-28620
-28770.8
-28925.9
-29085.4
-29249.5
-29418.3
-29591.8
-29770.3
-29953.9
-30142.8
-30337
-30536.7
-30742.2
-30953.5
-31170.9
-31394.4
-31624.3
-31860.8
-32104.1
-32354.3
-32611.6
-32876.3
-33148.5
-33428.5
-33716.6
-34012.8
-34317.5
-34630.9
-34953.2
-35284.7
-35625.7
-35976.5
-36337.2
-29144.9
-29260.8
-29380
-29502.5
-29628.5
-29758
-29891.3
-30028.3
-30169.2
-30314.1
-30463.1
-30616.4
-30774
-30936.1
-31102.9
-31274.4
-31450.7
-31632.2
-31818.7
-32010.7
-32208.1
-32411.1
-32619.9
-32834.7
-33055.6
-33282.8
-33516.5
-33756.9
-34004.1
-34258.4
-34519.9
-34789
-35065.7
-35350.3
-35643
-35944.1
-36253.7
-36572.3
-36899.9
-37236.9
-30615.4
-30723.1
-30833.9
-30947.8
-31065
-31185.4
-31309.2
-31436.6
-31567.5
-31702.2
-31840.7
-31983.2
-32129.7
-32280.4
-32435.4
-32594.8
-32758.7
-32927.3
-33100.8
-33279.1
-33462.6
-33651.3
-33845.4
-34045
-34250.3
-34461.5
-34678.7
-34902.1
-35131.9
-35368.2
-35611.3
-35861.4
-36118.5
-36383
-36655.1
-36934.9
-37222.8
-37518.8
-37823.3
-38136.5
-32085.8
-32185.4
-32287.8
-32393.1
-32501.4
-32612.7
-32727.2
-32844.9
-32965.9
-33090.4
-33218.4
-33350
-33485.4
-33624.7
-33767.9
-33915.2
-34066.7
-34222.5
-34382.8
-34547.6
-34717.2
-34891.5
-35070.9
-35255.3
-35445.1
-35640.2
-35840.9
-36047.4
-36259.7
-36478.1
-36702.7
-36933.8
-37171.4
-37415.8
-37667.2
-37925.8
-38191.8
-38465.3
-38746.7
-39036.1
-33556.2
-33647.7
-33741.8
-33838.4
-33937.8
-34040
-34145.1
-34253.2
-34364.3
-34478.5
-34596
-34716.9
-34841.2
-34969
-35100.4
-35235.6
-35374.7
-35517.7
-35664.8
-35816.1
-35971.7
-36131.7
-36296.4
-36465.7
-36639.8
-36818.9
-37003.1
-37192.6
-37387.5
-37587.9
-37794.1
-38006.1
-38224.3
-38448.6
-38679.3
-38916.7
-39160.8
-39411.8
-39670.1
-39935.7
-35026.6
-35110
-35195.7
-35283.7
-35374.3
-35467.3
-35563
-35661.4
-35762.6
-35866.7
-35973.7
-36083.7
-36196.9
-36313.3
-36433
-36556.1
-36682.7
-36812.9
-36946.8
-37084.6
-37226.3
-37372
-37521.8
-37676
-37834.5
-37997.6
-38165.3
-38337.8
-38515.3
-38697.8
-38885.5
-39078.5
-39277.1
-39481.4
-39691.4
-39907.5
-40129.8
-40358.3
-40593.5
-40835.3
-36497
-36572.2
-36649.6
-36729
-36810.7
-36894.7
-36981
-37069.7
-37161
-37254.8
-37351.3
-37450.6
-37552.6
-37657.6
-37765.5
-37876.5
-37990.7
-38108.1
-38228.8
-38353.1
-38480.8
-38612.2
-38747.3
-38886.3
-39029.3
-39176.3
-39327.5
-39483.1
-39643.1
-39807.6
-39976.9
-40150.9
-40330
-40514.1
-40703.6
-40898.4
-41098.8
-41304.9
-41516.9
-41734.9
-37967.3
-38034.5
-38103.4
-38174.3
-38247.1
-38322
-38398.9
-38478
-38559.3
-38643
-38729
-38817.4
-38908.3
-39001.8
-39098
-39196.9
-39298.6
-39403.3
-39510.9
-39621.5
-39735.3
-39852.4
-39972.8
-40096.6
-40224
-40355
-40489.7
-40628.3
-40770.9
-40917.5
-41068.2
-41223.3
-41382.8
-41546.9
-41715.7
-41889.2
-42067.8
-42251.4
-42440.2
-42634.5
-39437.7
-39496.7
-39557.3
-39619.6
-39683.5
-39749.3
-39816.8
-39886.3
-39957.7
-40031.1
-40106.6
-40184.2
-40264
-40346.1
-40430.5
-40517.3
-40606.6
-40698.4
-40792.9
-40890
-40989.9
-41092.6
-41198.3
-41307
-41418.7
-41533.7
-41651.9
-41773.6
-41898.6
-42027.3
-42159.6
-42295.7
-42435.7
-42579.7
-42727.8
-42880.1
-43036.8
-43197.9
-43363.6
-43534.1
-40908
-40958.9
-41011.2
-41064.8
-41119.9
-41176.5
-41234.7
-41294.5
-41356
-41419.2
-41484.2
-41551
-41619.7
-41690.4
-41763
-41837.8
-41914.6
-41993.6
-42074.9
-42158.5
-42244.4
-42332.8
-42423.8
-42517.3
-42613.5
-42712.4
-42814.1
-42918.8
-43026.4
-43137.1
-43251
-43368.1
-43488.6
-43612.5
-43739.9
-43870.9
-44005.8
-44144.4
-44287
-44433.7
-42378.3
-42421.1
-42465
-42510.1
-42556.3
-42603.8
-42652.6
-42702.8
-42754.4
-42807.4
-42861.8
-42917.9
-42975.4
-43034.7
-43095.6
-43158.2
-43222.6
-43288.8
-43356.9
-43426.9
-43499
-43573.1
-43649.2
-43727.6
-43808.2
-43891.1
-43976.4
-44064
-44154.2
-44247
-44342.4
-44440.5
-44541.4
-44645.2
-44752
-44861.8
-44974.7
-45090.9
-45210.4
-45333.3
-43848.6
-43883.3
-43918.8
-43955.3
-43992.7
-44031.1
-44070.5
-44111.1
-44152.7
-44195.5
-44239.5
-44284.7
-44331.1
-44378.9
-44428.1
-44478.6
-44530.5
-44584
-44638.9
-44695.4
-44753.5
-44813.3
-44874.7
-44937.9
-45002.9
-45069.8
-45138.6
-45209.3
-45282
-45356.8
-45433.8
-45512.9
-45594.3
-45678
-45764.1
-45852.7
-45943.7
-46037.4
-46133.8
-46232.9
-45108.2
-45137.2
-45167.2
-45197.9
-45229.6
-45262.2
-45295.7
-45330.2
-45365.6
-45402.1
-45439.6
-45478.2
-45517.9
-45558.7
-45600.7
-45643.9
-45688.3
-45734
-45781
-45829.3
-45879
-45930.2
-45982.8
-46036.9
-46092.5
-46149.8
-46208.7
-46269.2
-46331.5
-46395.6
-46461.5
-46529.3
-46599
-46670.7
-46744.4
-46820.3
-46898.3
-46978.6
-47061.2
-47146.1
-46145.5
-46173.1
-46201.4
-46230.5
-46260.4
-46291.3
-46323
-46355.6
-46389.1
-46423.6
-46459.1
-46495.6
-46533.1
-46571.7
-46611.4
-46652.3
-46694.3
-46737.5
-46782
-46827.7
-46874.8
-46923.1
-46972.9
-47024.1
-47076.7
-47130.9
-47186.6
-47243.9
-47302.8
-47363.4
-47425.7
-47489.8
-47555.8
-47623.6
-47693.4
-47765.2
-47839
-47914.9
-47993
-48073.3
-47182.9
-47208.9
-47235.6
-47263
-47291.3
-47320.3
-47350.2
-47381
-47412.6
-47445.1
-47478.6
-47513
-47548.4
-47584.8
-47622.2
-47660.7
-47700.4
-47741.1
-47783
-47826.1
-47870.5
-47916.1
-47963
-48011.3
-48060.9
-48112
-48164.5
-48218.5
-48274
-48331.2
-48390
-48450.4
-48512.6
-48576.6
-48642.3
-48710
-48779.6
-48851.2
-48924.8
-49000.6
-48220.3
-48244.7
-48269.8
-48295.6
-48322.1
-48349.4
-48377.5
-48406.4
-48436.1
-48466.6
-48498
-48530.4
-48563.6
-48597.8
-48633
-48669.2
-48706.4
-48744.7
-48784.1
-48824.6
-48866.2
-48909.1
-48953.1
-48998.5
-49045.1
-49093.1
-49142.4
-49193.1
-49245.3
-49299
-49354.2
-49411
-49469.4
-49529.5
-49591.3
-49654.9
-49720.2
-49787.5
-49856.7
-49927.8
-49257.7
-49280.5
-49304
-49328.1
-49352.9
-49378.5
-49404.7
-49431.8
-49459.5
-49488.1
-49517.5
-49547.8
-49578.9
-49610.9
-49643.8
-49677.6
-49712.4
-49748.3
-49785.1
-49823
-49861.9
-49902
-49943.3
-49985.7
-50029.3
-50074.2
-50120.3
-50167.8
-50216.6
-50266.8
-50318.5
-50371.6
-50426.2
-50482.4
-50540.2
-50599.7
-50660.9
-50723.8
-50788.5
-50855
-50295.1
-50316.4
-50338.2
-50360.7
-50383.8
-50407.5
-50432
-50457.2
-50483
-50509.6
-50537
-50565.2
-50594.1
-50623.9
-50654.6
-50686.1
-50718.5
-50751.8
-50786.1
-50821.4
-50857.7
-50895
-50933.4
-50972.9
-51013.5
-51055.3
-51098.2
-51142.4
-51187.9
-51234.6
-51282.7
-51332.2
-51383
-51435.4
-51489.2
-51544.6
-51601.5
-51660.1
-51720.3
-51782.3
-51332.5
-51352.2
-51372.4
-51393.2
-51414.6
-51436.6
-51459.3
-51482.5
-51506.5
-51531.1
-51556.5
-51582.6
-51609.4
-51637
-51665.3
-51694.5
-51724.5
-51755.4
-51787.1
-51819.8
-51853.4
-51888
-51923.5
-51960.1
-51997.7
-52036.3
-52076.1
-52117
-52159.1
-52202.4
-52247
-52292.7
-52339.9
-52388.3
-52438.1
-52489.4
-52542.1
-52596.4
-52652.1
-52709.5
-52369.9
-52388
-52406.6
-52425.8
-52445.4
-52465.7
-52486.5
-52507.9
-52530
-52552.7
-52576
-52600
-52624.6
-52650
-52676.1
-52702.9
-52730.6
-52759
-52788.2
-52818.2
-52849.1
-52880.9
-52913.6
-52947.3
-52981.9
-53017.4
-53054
-53091.7
-53130.4
-53170.2
-53211.2
-53253.3
-53296.7
-53341.2
-53387.1
-53434.3
-53482.8
-53532.7
-53584
-53636.8
-53407.3
-53423.8
-53440.8
-53458.3
-53476.3
-53494.8
-53513.8
-53533.3
-53553.5
-53574.2
-53595.5
-53617.4
-53639.9
-53663
-53686.9
-53711.4
-53736.6
-53762.5
-53789.2
-53816.6
-53844.9
-53873.9
-53903.7
-53934.5
-53966
-53998.5
-54032
-54066.3
-54101.7
-54138
-54175.4
-54213.9
-54253.5
-54294.2
-54336
-54379.1
-54423.4
-54469
-54515.8
-54564
-54444.7
-54459.7
-54475
-54490.8
-54507.1
-54523.8
-54541
-54558.7
-54577