/*--------------------------------*- C++ -*----------------------------------*\
| =========                 |                                                 |
| \\      /  F ield         | OpenFOAM: The Open Source CFD Toolbox           |
|  \\    /   O peration     | Version:  2312                                  |
|   \\  /    A nd           | Website:  www.openfoam.com                      |
|    \\/     M anipulation  |                                                 |
\*---------------------------------------------------------------------------*/
FoamFile
{
    version     2.0;
    format      ascii;
    arch        "LSB;label=32;scalar=64";
    class       volScalarField;
    location    "13117.4";
    object      p_rgh;
}
// * * * * * * * * * * * * * * * * * * * * * * * * * * * * * * * * * * * * * //

dimensions      [1 -1 -2 0 0 0 0];

internalField   nonuniform List<scalar> 
3780
(
8.8477
8.85875
8.86551
8.85939
8.84262
8.82026
8.79634
8.77388
8.755
8.73961
8.72336
8.70718
8.69781
8.69754
8.70507
8.7168
8.7305
8.74577
8.76002
8.77328
8.78219
8.78538
8.78629
8.78569
8.78467
8.78446
8.7866
8.7927
8.80347
8.8171
8.83164
8.84944
8.8706
8.89435
8.91959
8.94607
8.97106
8.98988
8.9995
9.00394
8.62588
8.62866
8.63263
8.63382
8.63231
8.62935
8.6261
8.62352
8.62221
8.62214
8.62397
8.62826
8.63653
8.65019
8.66922
8.69101
8.71254
8.73281
8.74924
8.76187
8.76809
8.76785
8.76397
8.75762
8.75042
8.74321
8.73751
8.73416
8.73341
8.73568
8.74179
8.75188
8.76576
8.78324
8.80404
8.8311
8.85177
8.86907
8.87355
8.86657
8.49698
8.50037
8.50934
8.51482
8.51607
8.51514
8.51372
8.51302
8.51377
8.51617
8.52051
8.52754
8.53803
8.55381
8.57682
8.60565
8.63438
8.66088
8.68148
8.69439
8.69722
8.69237
8.68259
8.66965
8.655
8.6403
8.627
8.61611
8.60877
8.60636
8.6098
8.61949
8.63608
8.66057
8.69444
8.73653
8.77794
8.82121
8.84906
8.85399
8.33289
8.32769
8.33159
8.33382
8.33301
8.331
8.32932
8.32898
8.33069
8.3347
8.34113
8.3505
8.36361
8.38222
8.40932
8.44617
8.48857
8.52802
8.5595
8.57855
8.58119
8.57323
8.55766
8.53688
8.51332
8.48927
8.46679
8.44774
8.43395
8.42713
8.42813
8.43803
8.45835
8.49114
8.53917
8.60269
8.67606
8.75302
8.80519
8.81245
8.14489
8.12676
8.12311
8.11974
8.11384
8.10695
8.10053
8.09569
8.09339
8.09431
8.09852
8.10666
8.12018
8.14119
8.17308
8.21901
8.27724
8.33962
8.39309
8.428
8.43657
8.429
8.40988
8.38291
8.35171
8.31963
8.28962
8.26418
8.24551
8.2355
8.23545
8.24718
8.27303
8.31605
8.38017
8.46833
8.57601
8.69613
8.77939
8.79594
7.92923
7.89041
7.87281
7.85822
7.84215
7.82572
7.81038
7.79738
7.788
7.7835
7.7845
7.79143
7.80641
7.83209
7.87233
7.93127
8.00969
8.10013
8.18721
8.25106
8.27382
8.27199
8.25332
8.2233
8.18706
8.14905
8.11297
8.08189
8.05841
8.04478
8.04306
8.05589
8.08661
8.13954
8.22025
8.33429
8.47895
8.64991
8.77192
8.80211
7.69537
7.62676
7.58825
7.55667
7.5254
7.495
7.46689
7.44247
7.42333
7.41131
7.40813
7.41478
7.43303
7.46611
7.51847
7.59507
7.69824
7.82222
7.94898
8.05226
8.09844
8.10835
8.09479
8.06538
8.02696
7.98506
7.94403
7.90741
7.87824
7.85946
7.85402
7.86553
7.89857
7.95911
8.05502
8.19494
8.38141
8.6177
8.78507
8.83192
7.45831
7.34932
7.28201
7.22694
7.17494
7.12587
7.08116
7.04244
7.01162
6.99103
6.98322
6.99058
7.01463
7.05853
7.12713
7.22598
7.35844
7.51983
7.69088
7.83812
7.91386
7.94044
7.93602
7.9103
7.87185
7.82733
7.78177
7.73906
7.70277
7.67677
7.66487
7.67162
7.7029
7.76666
7.87384
8.03796
8.27217
8.5908
8.81875
8.88806
7.23624
7.07508
6.97066
6.88535
6.80689
6.73436
6.66924
6.61348
6.56943
6.53989
6.52812
6.5376
6.56991
6.62822
6.7174
6.84308
7.00886
7.2103
7.42664
7.61895
7.72486
7.77013
7.77675
7.7561
7.71848
7.67156
7.62102
7.57111
7.52645
7.49172
7.47121
7.47004
7.49511
7.55638
7.66856
7.85282
8.13726
8.55464
8.87018
8.97184
7.05099
6.82373
6.67217
6.54834
6.43642
6.33485
6.24528
6.17011
6.11221
6.07474
6.06112
6.0748
6.11874
6.19575
6.31023
6.46729
6.6697
6.91184
7.17059
7.4023
7.53395
7.59522
7.61142
7.59523
7.55785
7.5079
7.45182
7.39449
7.34196
7.29894
7.26961
7.25905
7.27454
7.32749
7.43638
7.63153
7.96017
8.48763
8.94068
9.09104
6.93753
6.62798
6.41753
6.24458
6.08923
5.94931
5.82687
5.72517
5.64805
5.59966
5.58425
5.60608
5.66867
5.77382
5.92367
6.12044
6.36384
6.64506
6.93792
7.19666
7.3451
7.41666
7.43917
7.42564
7.38787
7.33503
7.27374
7.20948
7.15014
7.09948
7.06085
7.03885
7.04098
7.07996
7.1779
7.37388
7.73824
8.36485
9.04554
9.24877
6.9079
6.50272
6.22994
6.00722
5.8087
5.63129
5.47767
5.35215
5.25977
5.2057
5.19451
5.22973
5.31358
5.44677
5.62648
5.85103
6.11664
6.41087
6.70502
6.95424
7.08967
7.15722
7.18162
7.17322
7.14186
7.09515
7.03923
6.9816
6.92481
6.87076
6.82295
6.78667
6.771
6.79142
6.87374
7.06038
7.42613
8.09153
9.1765
9.35856
6.88407
6.36811
6.01096
5.7103
5.44079
5.20221
5.00005
4.84073
4.73067
4.67537
4.6775
4.73717
4.85499
5.0235
5.23874
5.50012
5.80239
6.12943
6.45021
6.72455
6.89253
6.989
7.03609
7.04503
7.02548
6.98531
6.93061
6.86518
6.79156
6.71424
6.63815
6.56918
6.52124
6.51753
6.59214
6.78525
7.13763
7.72254
8.40531
9.0593
7.01309
6.41783
6.0078
5.66564
5.35991
5.08792
4.85399
4.66394
4.52452
4.44296
4.42365
4.46815
4.57552
4.74093
4.9534
5.20525
5.49001
5.79591
6.10079
6.37328
6.55226
6.6692
6.74677
6.78991
6.80487
6.79767
6.77366
6.73738
6.69132
6.63465
6.56559
6.4823
6.38141
6.26262
6.13399
5.99875
5.86109
5.73132
5.61227
5.5027
7.21903
6.53667
6.06253
5.66549
5.30896
4.98865
4.70791
4.47305
4.29175
4.17274
4.12243
4.14575
4.24258
4.41023
4.63104
4.88875
5.17271
5.4715
5.7686
6.04116
6.23109
6.36354
6.46225
6.52933
6.56876
6.58498
6.58221
6.56408
6.53355
6.49305
6.44425
6.38792
6.32359
6.24953
6.16456
6.06874
5.96362
5.85375
5.7443
5.63811
7.49689
6.72486
6.18473
5.73075
5.32051
4.9479
4.61587
4.33091
4.10124
3.93547
3.84287
3.83127
3.90325
4.05588
4.27867
4.54318
4.83234
5.13259
5.4287
5.70202
5.89691
6.03665
6.14642
6.22734
6.2824
6.31534
6.32989
6.32949
6.31707
6.29513
6.26565
6.23012
6.18943
6.14383
6.09291
6.03587
5.97205
5.90158
5.82529
5.7437
7.83922
6.97435
6.3656
5.85195
5.38492
4.95634
4.56823
4.22658
3.93981
3.71794
3.57171
3.51081
3.54312
3.66892
3.88074
4.14984
4.44599
4.75123
5.04951
5.32407
5.52128
5.66436
5.77959
5.86773
5.93119
5.97309
5.99664
6.00487
6.00054
5.98614
5.96384
5.93555
5.90286
5.86698
5.82866
5.78816
5.74522
5.69929
5.64962
5.59503
8.24505
7.28441
6.60502
6.02981
5.50395
5.01702
4.56977
4.16735
3.81761
3.53063
3.31826
3.19293
3.16574
3.24398
3.42367
3.68748
3.9887
4.29962
4.60156
4.87788
5.0765
5.2209
5.3381
5.42903
5.49591
5.54156
5.56882
5.58042
5.57886
5.56645
5.54529
5.51725
5.48407
5.44725
5.4081
5.36762
5.32646
5.28482
5.24235
5.19799
8.71701
7.6576
6.90571
6.26739
5.68128
5.13456
4.62655
4.1611
3.74492
3.38725
3.0998
2.89629
2.79097
2.79595
2.91749
3.14574
3.4419
3.75386
4.05639
4.33154
4.5285
4.67079
4.78562
4.87418
4.93869
4.9817
5.00577
5.01334
5.00666
4.98786
4.95891
4.92163
4.87779
4.82903
4.77694
4.72291
4.66814
4.6136
4.55971
4.50619
9.26087
8.09956
7.2734
6.57069
5.9234
5.31635
4.74731
4.21863
3.73539
3.30514
2.9382
2.64775
2.4494
2.35903
2.38894
2.54239
2.80241
3.10073
3.39291
3.65768
3.84549
3.97912
4.08478
4.16382
4.21833
4.25056
4.26272
4.25687
4.23496
4.19887
4.15033
4.09102
4.02286
3.94774
3.8676
3.78432
3.6997
3.61514
3.53237
3.45191
9.88441
8.61789
7.71563
6.94729
6.23816
5.57076
4.94142
4.35098
3.80266
3.30187
2.8565
2.47745
2.17902
1.97823
1.8918
1.92958
2.08819
2.34497
2.60912
2.84703
3.01195
3.12526
3.21027
3.26833
3.30118
3.3105
3.29799
3.26526
3.21403
3.14609
3.06315
2.96642
2.85669
2.73709
2.6114
2.48342
2.3567
2.23428
2.1177
2.00739
10.596
9.2207
8.24031
7.40498
6.63327
5.90563
5.21715
4.56734
3.9577
3.39139
2.87355
2.41181
2.017
1.70364
1.48931
1.39022
1.41101
1.53887
1.73765
1.92943
2.05528
2.13322
2.18201
2.2038
2.2007
2.17312
2.12273
2.05141
1.95995
1.85145
1.73113
1.60572
1.48138
1.36
1.24293
1.13126
1.02584
0.927275
0.835599
0.74898
11.4032
9.91503
8.85409
7.95004
7.11464
6.32653
5.57989
4.8732
4.20654
3.58115
2.99968
2.46654
1.98853
1.57541
1.24062
1.00067
0.869378
0.843546
0.897073
0.991182
1.05918
1.09343
1.10306
1.0895
1.05163
0.990952
0.915568
0.833416
0.751964
0.672497
0.595501
0.522032
0.453584
0.391184
0.335169
0.285518
0.241968
0.204076
0.171322
0.142706
12.3109
10.7054
9.56089
8.58573
7.68473
6.83504
6.03031
5.26838
4.54829
3.86981
3.23364
2.64178
2.09787
1.60761
1.17924
0.824385
0.558248
0.393737
0.321061
0.302414
0.299929
0.296016
0.285918
0.267691
0.241152
0.211059
0.180436
0.151154
0.124602
0.101353
0.0813051
0.064216
0.049834
0.0378819
0.028055
0.0200462
0.0135642
0.00834493
0.00418648
0.000966794
13.3218
11.5935
10.3615
9.31185
8.34214
7.42831
6.56396
5.7467
4.97488
4.24719
3.56288
2.92225
2.327
1.78055
1.28838
0.858585
0.503365
0.241836
0.0933887
0.0360032
0.0181411
0.0107458
0.00569465
0.00130647
-0.00281893
-0.00646464
-0.00947205
-0.0118343
-0.0136117
-0.0148912
-0.0157678
-0.0163281
-0.0166438
-0.0167725
-0.0167596
-0.0166421
-0.0164555
-0.0162341
-0.0159751
-0.0155696
14.4375
12.5797
11.2552
10.1264
9.08334
8.101
7.17341
6.2984
5.47403
4.69812
3.96868
3.28451
2.64575
2.05439
1.51465
1.03346
0.62154
0.297013
0.0900382
0.00518014
-0.0182512
-0.0262374
-0.0298506
-0.0314945
-0.032094
-0.0320649
-0.0316231
-0.0309034
-0.0300079
-0.0290119
-0.0279659
-0.0269035
-0.0258484
-0.024817
-0.0238203
-0.0228665
-0.0219695
-0.0211482
-0.0203743
-0.019465
15.661
13.666
12.2426
11.0288
9.90609
8.84898
7.85244
6.91508
6.03505
5.20958
4.43549
3.70993
3.03122
2.39951
1.81746
1.29075
0.828933
0.447906
0.17605
0.0360181
-0.00943886
-0.0259721
-0.0338673
-0.0378046
-0.0396332
-0.0402228
-0.0400337
-0.0393264
-0.0382551
-0.0369339
-0.0354743
-0.0339688
-0.0324666
-0.0309949
-0.0295714
-0.0282106
-0.0269349
-0.0257713
-0.0246737
-0.0233705
16.9992
14.8574
13.3275
12.0213
10.8111
9.67087
8.59731
7.59056
6.64944
5.77097
4.951
4.18501
3.46908
2.80086
2.1805
1.61149
1.10145
0.66371
0.321899
0.105506
0.0178069
-0.016876
-0.0340871
-0.0431809
-0.0479758
-0.0502758
-0.0510296
-0.0507795
-0.0498527
-0.0484469
-0.046677
-0.0446458
-0.0424951
-0.0403412
-0.038237
-0.0362127
-0.0343092
-0.0325736
-0.030932
-0.0289688
18.464
16.1645
14.5188
13.1113
11.8035
10.5693
9.40771
8.32147
7.3108
6.37321
5.50402
4.69733
3.94693
3.2475
2.59574
1.99165
1.43963
0.94982
0.540512
0.236755
0.0805785
0.00968726
-0.027533
-0.0481092
-0.0597792
-0.0662796
-0.0695838
-0.0708099
-0.0706307
-0.0694719
-0.0676079
-0.0652002
-0.062337
-0.0591382
-0.0557959
-0.0524737
-0.0492813
-0.0463142
-0.0434577
-0.0400367
20.0704
17.6018
15.8302
14.3115
12.8942
11.5522
10.2882
9.10824
8.01521
7.00791
6.08194
5.23068
4.44618
3.72023
3.04568
2.41785
1.83612
1.30559
0.839002
0.453641
0.210819
0.077152
-0.00142691
-0.0474563
-0.0750089
-0.0916204
-0.101414
-0.106749
-0.109027
-0.109119
-0.107591
-0.104833
-0.101116
-0.096604
-0.0914074
-0.0857556
-0.0800158
-0.0744445
-0.0688337
-0.0621838
21.8198
19.1758
17.2723
15.6353
14.0983
12.6348
11.2521
9.96151
8.76947
7.67732
6.6819
5.77684
4.95336
4.20123
3.50992
2.86996
2.27458
1.72146
1.21494
0.767386
0.447391
0.237281
0.089228
-0.0086467
-0.0719999
-0.113266
-0.140344
-0.158086
-0.169537
-0.176639
-0.180605
-0.182118
-0.181467
-0.178694
-0.173781
-0.166768
-0.157828
-0.147032
-0.13428
-0.119468
23.7925
20.9629
18.914
17.1422
15.4629
13.8499
12.3161
10.8804
9.55543
8.34679
7.25396
6.2721
5.39269
4.60436
3.89387
3.24719
2.651
2.09448
1.57219
1.09067
0.721945
0.456513
0.24249
0.0773164
-0.0440667
-0.129932
-0.189663
-0.231155
-0.259957
-0.279687
-0.292689
-0.300548
-0.304408
-0.305125
-0.303335
-0.299697
-0.295578
-0.294167
-0.295795
-0.290849
26.3858
23.2964
21.0351
19.0734
17.2012
15.389
13.6556
12.0279
10.5252
9.15761
7.92699
6.83002
5.85901
5.00262
4.24654
3.57439
2.96874
2.41222
1.8889
1.39227
0.997223
0.697028
0.43729
0.217979
0.0381739
-0.104855
-0.216335
-0.303162
-0.372058
-0.428314
-0.475541
-0.515908
-0.550477
-0.579571
-0.603168
-0.621246
-0.634183
-0.643355
-0.650634
-0.653073
28.4777
25.073
22.5473
20.334
18.2034
16.1321
14.1519
12.3023
10.6097
9.08603
7.73362
6.54823
5.52021
4.63543
3.87624
3.22257
2.65327
2.14743
1.68628
1.2565
0.912244
0.649438
0.419058
0.220021
0.0515749
-0.0873666
-0.198925
-0.286575
-0.35471
-0.407678
-0.448981
-0.480945
-0.504808
-0.521044
-0.529875
-0.531804
-0.527839
-0.519391
-0.507883
-0.493593
30.7125
26.9995
24.2167
21.7506
19.3525
17.009
14.7684
12.6825
10.7857
9.09338
7.60831
6.32493
5.23138
4.31058
3.54127
2.89954
2.36035
1.89914
1.49331
1.12477
0.83237
0.607708
0.408118
0.23259
0.0806107
-0.0483398
-0.155212
-0.241719
-0.310398
-0.364273
-0.406253
-0.438572
-0.462499
-0.478655
-0.487651
-0.490382
-0.488013
-0.481663
-0.472348
-0.459571
33.1363
29.1052
26.0476
23.3065
20.612
17.9624
15.4255
13.0712
10.9445
9.06465
7.43381
6.04431
4.88115
3.92322
3.14453
2.51597
2.00765
1.5911
1.24091
0.934856
0.696653
0.5149
0.353056
0.209352
0.0830552
-0.0261877
-0.118803
-0.195616
-0.258021
-0.307876
-0.347141
-0.377206
-0.399175
-0.413874
-0.422129
-0.424989
-0.423672
-0.419294
-0.412655
-0.403878
35.7771
31.4236
28.0771
25.0399
22.0186
19.0274
16.1589
13.5055
11.1259
9.04322
7.25837
5.76004
4.5287
3.53775
2.75469
2.14343
1.6676
1.29382
0.993424
0.741582
0.551142
0.407624
0.280233
0.166696
0.0660088
-0.0222425
-0.0983403
-0.16275
-0.216284
-0.260068
-0.295323
-0.323018
-0.34372
-0.358331
-0.367688
-0.372687
-0.374229
-0.37304
-0.369606
-0.364036
38.6665
33.9853
30.3285
26.9667
23.5804
20.2041
16.9608
13.9711
11.3111
9.00893
7.06267
5.45553
4.16147
3.14623
2.36836
1.78237
1.34373
1.01339
0.75988
0.555955
0.406558
0.295873
0.198421
0.111626
0.034256
-0.0342352
-0.0941399
-0.145773
-0.189609
-0.226286
-0.256508
-0.2809
-0.299925
-0.314103
-0.324105
-0.330672
-0.334496
-0.336144
-0.336096
-0.334867
41.8297
36.8283
32.8381
29.1192
25.3244
21.5137
17.8455
14.4748
11.5013
8.96
6.8448
5.13093
3.78313
2.75638
1.99676
1.44629
1.05055
0.764448
0.55384
0.39078
0.275158
0.191131
0.117982
0.0530909
-0.00488978
-0.056622
-0.10245
-0.14263
-0.177447
-0.207247
-0.232411
-0.253319
-0.270323
-0.283798
-0.294183
-0.301947
-0.30759
-0.311569
-0.31438
-0.31698
45.2664
39.9909
35.6525
31.5444
27.2959
22.9964
18.8443
15.0368
11.7059
8.8984
6.60306
4.78401
3.39308
2.36987
1.64296
1.1382
0.790004
0.547852
0.375876
0.247265
0.158921
0.096016
0.0419768
-0.0056759
-0.0482888
-0.0865704
-0.120895
-0.15149
-0.178539
-0.202229
-0.222766
-0.240365
-0.255259
-0.267703
-0.277989
-0.286421
-0.293335
-0.299098
-0.304233
-0.31018
48.9076
43.4916
38.8282
34.3135
29.5726
24.7294
20.0251
15.7082
11.9578
8.84279
6.34746
4.42094
2.99686
1.9924
1.31154
0.86002
0.561071
0.360466
0.222415
0.122363
0.0557096
0.00922577
-0.0301412
-0.0646169
-0.0954544
-0.123344
-0.148661
-0.171612
-0.192331
-0.210929
-0.227515
-0.242209
-0.255147
-0.266485
-0.276401
-0.285098
-0.292814
-0.299861
-0.306834
-0.315681
52.5978
47.2994
42.4193
37.522
32.2735
26.8392
21.5055
16.5833
12.3219
8.83289
6.10142
4.05643
2.6055
1.63257
1.00745
0.612274
0.360611
0.19742
0.0881824
0.0113027
-0.0383802
-0.0722892
-0.100577
-0.125172
-0.147187
-0.167253
-0.185724
-0.202791
-0.218561
-0.233106
-0.246486
-0.25876
-0.27
-0.280291
-0.289737
-0.298468
-0.306665
-0.314624
-0.323018
-0.334242
56.1802
51.3432
46.4839
41.3128
35.5919
29.539
23.4902
17.8315
12.9172
8.94225
5.90829
3.71651
2.23635
1.30206
0.736662
0.396126
0.186856
0.0549883
-0.0309756
-0.0896805
-0.126403
-0.150879
-0.170962
-0.188296
-0.203841
-0.218156
-0.231558
-0.24422
-0.256235
-0.26765
-0.278498
-0.288804
-0.298597
-0.307918
-0.316823
-0.325397
-0.333789
-0.342288
-0.351617
-0.364458
59.6284
55.562
51.0817
45.8878
39.8349
33.1881
26.3368
19.7574
13.9597
9.29999
5.84021
3.43986
1.91048
1.01156
0.502418
0.21032
0.036703
-0.0699532
-0.137632
-0.182396
-0.209423
-0.226964
-0.241097
-0.253205
-0.264105
-0.274275
-0.283994
-0.293411
-0.302604
-0.311608
-0.320437
-0.329095
-0.337588
-0.345929
-0.354145
-0.362294
-0.370498
-0.379028
-0.388602
-0.401894
62.8824
59.7389
55.9872
51.1674
45.1081
38.0397
30.3792
22.6966
15.7111
10.0635
5.98668
3.27354
1.64931
0.768416
0.304937
0.0525033
-0.0922682
-0.178854
-0.232243
-0.266383
-0.286239
-0.298758
-0.308644
-0.317052
-0.324661
-0.331871
-0.338915
-0.345917
-0.352941
-0.360008
-0.367123
-0.374276
-0.381461
-0.388673
-0.395922
-0.403243
-0.410733
-0.418621
-0.427535
-0.439795
65.5215
63.3984
60.6392
56.6675
51.1269
43.9836
35.5964
26.7026
18.274
11.3279
6.43449
3.28353
1.4855
0.582014
0.144427
-0.0788096
-0.200973
-0.271468
-0.313471
-0.339362
-0.353842
-0.362685
-0.369516
-0.375278
-0.380521
-0.385566
-0.390598
-0.395717
-0.400968
-0.406363
-0.411898
-0.417557
-0.423324
-0.429186
-0.435137
-0.441196
-0.447426
-0.453997
-0.461376
-0.471266
68.021
67.0881
65.7164
63.3698
59.3874
52.9085
43.6334
32.7984
22.0975
13.2622
7.22964
3.48041
1.41231
0.439537
0.0109422
-0.189226
-0.291725
-0.348106
-0.380396
-0.39956
-0.409877
-0.415964
-0.420548
-0.424369
-0.427851
-0.431241
-0.434677
-0.438231
-0.441934
-0.445789
-0.449787
-0.453908
-0.458132
-0.462439
-0.466816
-0.471263
-0.475811
-0.480563
-0.485803
-0.492542
70.563
70.3607
69.9359
68.9973
67.1238
63.049
54.3504
40.7352
26.3771
14.5304
7.31612
3.18487
1.1078
0.234027
-0.119454
-0.277797
-0.357399
-0.400589
-0.424853
-0.438904
-0.446226
-0.450383
-0.453431
-0.455942
-0.458241
-0.460513
-0.46286
-0.465333
-0.467948
-0.470702
-0.473582
-0.476566
-0.479632
-0.482758
-0.485927
-0.48913
-0.49238
-0.495734
-0.499343
-0.503688
71.0947
69.3571
68.0325
67.4374
67.5054
64.3296
55.2908
41.093
25.9454
13.7972
6.46156
2.55438
0.769345
0.074651
-0.203148
-0.329799
-0.394599
-0.429847
-0.44947
-0.460658
-0.466342
-0.469459
-0.471677
-0.47347
-0.475101
-0.47672
-0.478409
-0.480206
-0.48212
-0.484146
-0.486269
-0.488466
-0.490716
-0.492995
-0.495282
-0.49756
-0.499826
-0.502096
-0.504415
-0.506934
69.7376
67.4094
66.6793
65.445
65.7593
63.2577
53.1478
38.1337
22.9451
11.4561
4.85018
1.6595
0.389911
-0.0814955
-0.279177
-0.375015
-0.42573
-0.45356
-0.468924
-0.47753
-0.481772
-0.483981
-0.485476
-0.486641
-0.487684
-0.488722
-0.489818
-0.491
-0.492272
-0.493627
-0.495051
-0.496523
-0.498022
-0.499526
-0.501014
-0.50247
-0.503888
-0.505262
-0.506577
-0.507867
73.0678
72.8312
73.1093
70.2728
66.855
61.1422
48.0345
32.2685
18.1968
7.80557
2.83452
0.80778
0.0826793
-0.206134
-0.341751
-0.412387
-0.450929
-0.472134
-0.483637
-0.489894
-0.492816
-0.494193
-0.495032
-0.495635
-0.496162
-0.4967
-0.497296
-0.497967
-0.498716
-0.499533
-0.500406
-0.501317
-0.502247
-0.503178
-0.504092
-0.504974
-0.505814
-0.50662
-0.507343
-0.507748
73.6209
73.4597
72.576
70.0947
64.1765
52.7346
40.6725
23.8055
10.0481
3.68086
1.14915
0.244647
-0.122974
-0.299054
-0.391797
-0.44272
-0.470878
-0.486145
-0.494099
-0.498159
-0.49987
-0.50055
-0.500863
-0.501032
-0.501171
-0.501345
-0.501586
-0.501904
-0.502297
-0.502756
-0.503269
-0.50382
-0.504394
-0.504975
-0.505547
-0.506092
-0.506588
-0.507004
-0.507321
-0.507506
73.7055
72.8174
71.2546
68.5922
60.8074
46.6173
25.9407
11.2126
4.10123
1.44872
0.444505
-0.00384677
-0.232057
-0.355823
-0.424713
-0.463125
-0.484139
-0.495131
-0.50045
-0.502841
-0.503523
-0.503563
-0.50344
-0.503312
-0.50324
-0.503249
-0.503348
-0.503531
-0.503787
-0.504103
-0.50446
-0.504844
-0.505238
-0.505629
-0.506005
-0.506358
-0.506686
-0.506985
-0.50723
-0.507381
9.55505
5.39427
5.54651
5.6662
5.5409
5.15434
4.45548
3.3797
1.9153
0.673739
0.117862
-0.00143735
-0.0148609
-0.0181459
-0.0214448
-0.0260443
-0.0349369
-0.0526446
-0.10078
-0.263261
9.77758
10.1712
10.5977
11.1732
11.924
12.6933
13.5272
14.4073
15.2972
16.1256
16.7525
17.0779
17.3184
17.5401
17.7457
17.9465
18.144
18.3423
18.5386
18.7358
18.4018
16.0795
14.4266
12.6232
10.8116
9.02944
7.31066
5.70382
4.25837
3.01469
2.00033
1.22629
0.682297
0.335332
0.139724
0.0424824
0.00134339
0.000179244
0.000161682
0.000173369
5.20861
4.94797
4.70847
4.47073
4.21276
3.98302
3.77178
3.57631
3.39739
3.24019
3.129
3.04339
2.99257
2.96217
2.93175
2.84821
2.63845
2.28477
1.77999
1.16526
0.546821
0.464155
0.392869
0.309245
0.245862
0.192195
0.146399
0.107977
0.0763671
0.0511455
0.031966
0.0183003
0.00937677
0.00422972
0.00167832
0.000754003
9.46608e-05
6.10919e-05
0.000113469
0.000135792
5.33134
4.98556
4.65457
4.33533
4.02258
3.72306
3.43387
3.14993
2.86719
2.58375
2.3023
2.02519
1.75387
1.49309
1.25599
1.04463
0.851392
0.673877
0.500233
0.333021
0.184233
0.126733
0.094584
0.0679976
0.0484957
0.033683
0.0223662
0.0139145
0.00782085
0.00370542
0.00122792
-2.3384e-05
-0.000484574
-0.000485606
-0.000319942
-9.69635e-05
3.62979e-06
4.83703e-05
0.000107914
0.000133022
5.44049
5.14481
4.83056
4.50362
4.17253
3.84642
3.52637
3.20868
2.8894
2.56685
2.24342
1.92395
1.61478
1.32337
1.0588
0.826459
0.62742
0.461076
0.324016
0.209801
0.118848
0.0706399
0.04503
0.0280697
0.0167596
0.00904176
0.00381374
0.000445181
-0.00151937
-0.00240198
-0.00248078
-0.00207534
-0.00149101
-0.000913269
-0.000472451
-0.00015782
-8.53221e-06
4.48174e-05
0.00010452
0.000130981
5.35518
5.11368
4.85045
4.56292
4.25517
3.93497
3.60678
3.27078
2.92582
2.57267
2.21719
1.86938
1.54027
1.23882
0.971637
0.741793
0.549156
0.391464
0.265743
0.167387
0.0946292
0.0513551
0.0283265
0.0147867
0.00649659
0.00135111
-0.00175785
-0.00343693
-0.00408752
-0.00398081
-0.00335845
-0.00250151
-0.00165931
-0.000962003
-0.000477957
-0.000160291
-1.34863e-05
4.23051e-05
0.000101028
0.000128977
4.98428
4.78854
4.58001
4.34791
4.08551
3.79232
3.471
3.12449
2.75651
2.37378
1.99142
1.62922
1.30385
1.02238
0.785869
0.591259
0.433165
0.305823
0.204764
0.127278
0.070897
0.0362916
0.0178572
0.00757783
0.00153283
-0.00205694
-0.00408388
-0.00500394
-0.00510361
-0.00457969
-0.00365573
-0.00260999
-0.00167176
-0.000943173
-0.000458171
-0.000153395
-1.60597e-05
4.03505e-05
9.75628e-05
0.000127158
4.24406
4.06237
3.89644
3.718
3.50467
3.24364
2.93227
2.5761
2.18762
1.78434
1.40168
1.07413
0.812529
0.611994
0.459166
0.342675
0.251617
0.178219
0.11857
0.0723961
0.0389084
0.018203
0.00732958
0.00140124
-0.00216064
-0.00434559
-0.00557074
-0.00601291
-0.00577616
-0.00498044
-0.00385254
-0.00267384
-0.00166562
-0.00091611
-0.000434522
-0.000143797
-1.65739e-05
3.91651e-05
9.44015e-05
0.000125685
3.07241
2.88158
2.75365
2.62831
2.46306
2.23495
1.9408
1.5961
1.22912
0.891305
0.621213
0.420842
0.281306
0.191768
0.139499
0.106312
0.0815475
0.0596535
0.0393127
0.0222079
0.0100019
0.00251961
-0.00128173
-0.00342645
-0.00495336
-0.00606687
-0.00673414
-0.00686449
-0.00639584
-0.00540286
-0.00409823
-0.00277812
-0.00168138
-0.000896136
-0.000411479
-0.000132784
-1.51527e-05
3.89182e-05
9.18099e-05
0.000124703
1.5856
1.45982
1.41411
1.36185
1.25747
1.08713
0.862678
0.617766
0.400789
0.245014
0.142377
0.0796598
0.0436178
0.024021
0.0153699
0.0127433
0.0112634
0.00879074
0.004998
0.000805776
-0.00245652
-0.00448009
-0.00542758
-0.00600907
-0.0066168
-0.00721448
-0.00762153
-0.00761554
-0.00703838
-0.00590592
-0.00443206
-0.00294997
-0.00173602
-0.000891895
-0.000391923
-0.000120823
-1.1392e-05
3.96691e-05
9.00228e-05
0.000124333
0.469244
0.433171
0.456389
0.458667
0.414562
0.329057
0.22398
0.127878
0.0657917
0.0313632
0.0135903
0.00484448
0.000581035
-0.0015729
-0.00265545
-0.00299292
-0.00285382
-0.00280938
-0.00328339
-0.00432922
-0.00543292
-0.00626209
-0.00670135
-0.00701802
-0.00742218
-0.00788597
-0.00825167
-0.0082592
-0.00767242
-0.00645938
-0.00483888
-0.00318792
-0.00183437
-0.000908403
-0.000378404
-0.000108303
-4.9613e-06
4.16473e-05
8.92118e-05
0.000124661
0.0705707
0.0532316
0.0685384
0.0794093
0.0720418
0.0515899
0.0283151
0.0108374
0.00232349
-0.00144936
-0.00319781
-0.0040577
-0.00450106
-0.00474815
-0.00493134
-0.00508501
-0.00515651
-0.00518049
-0.00526002
-0.00556803
-0.00608007
-0.00661235
-0.00702082
-0.00737881
-0.0077973
-0.00826753
-0.00868099
-0.00877505
-0.00824978
-0.00701585
-0.0052866
-0.00347716
-0.00197347
-0.00094747
-0.000372866
-9.58654e-05
3.80181e-06
4.562e-05
8.94792e-05
0.000125739
-0.00403211
-0.00566992
-0.00470031
-0.00341038
-0.00216158
-0.00205658
-0.00318722
-0.00415957
-0.00465819
-0.00488658
-0.00500599
-0.00508559
-0.00514686
-0.00520392
-0.00528617
-0.00541564
-0.00555484
-0.00566167
-0.00573975
-0.00589869
-0.00622143
-0.00664942
-0.00708006
-0.00750681
-0.00797738
-0.00848627
-0.00896174
-0.00915911
-0.00874164
-0.007538
-0.00574352
-0.00379839
-0.00214565
-0.00100815
-0.000376364
-8.42893e-05
1.44604e-05
5.20616e-05
9.09822e-05
0.000127594
-0.0125259
-0.011072
-0.00979992
-0.0087949
-0.00793188
-0.00710268
-0.00637764
-0.00582952
-0.00550043
-0.0053327
-0.00525913
-0.00524216
-0.00525758
-0.0052937
-0.00535948
-0.00547538
-0.00562362
-0.00576244
-0.00586977
-0.0060077
-0.00626263
-0.00663907
-0.00707906
-0.00755056
-0.00806435
-0.00860988
-0.00913317
-0.00942677
-0.00913714
-0.00800171
-0.00618362
-0.00413238
-0.00234102
-0.00108751
-0.000389055
-7.42899e-05
2.66584e-05
6.06183e-05
9.39635e-05
0.000130278
-0.0145083
-0.0125394
-0.0107665
-0.00953328
-0.00854543
-0.00765515
-0.00684491
-0.0061945
-0.00575844
-0.0055041
-0.00537113
-0.00531608
-0.0053094
-0.00533354
-0.00538928
-0.00549172
-0.00563219
-0.00578008
-0.00590743
-0.00605215
-0.00628447
-0.00663151
-0.00706828
-0.0075608
-0.00810131
-0.00867313
-0.00922792
-0.00960123
-0.00943256
-0.00839302
-0.0065874
-0.00446206
-0.00254914
-0.00118137
-0.000410314
-6.64003e-05
3.9911e-05
7.07862e-05
9.83977e-05
0.000133882
-0.0161778
-0.0139533
-0.0115725
-0.0100184
-0.00885808
-0.00790759
-0.00708986
-0.00642804
-0.00595478
-0.0056522
-0.00547575
-0.00538682
-0.0053566
-0.00536595
-0.00541044
-0.00549923
-0.00562793
-0.00577474
-0.00591383
-0.00606982
-0.00629691
-0.0066272
-0.00705529
-0.00755338
-0.00810629
-0.00869358
-0.0092684
-0.00969874
-0.00963209
-0.00870604
-0.00694154
-0.0047733
-0.00276005
-0.00128496
-0.000438936
-6.09367e-05
5.36837e-05
8.22122e-05
0.000104023
0.000138422
-0.0180194
-0.015666
-0.0125239
-0.0105624
-0.00918167
-0.00813591
-0.00729428
-0.0066239
-0.00612703
-0.00578845
-0.00557526
-0.00545484
-0.00540064
-0.00539359
-0.00542583
-0.00550131
-0.00561754
-0.00575961
-0.00590607
-0.00607064
-0.00629696
-0.00661755
-0.00703562
-0.00753103
-0.00808639
-0.00868054
-0.00926604
-0.00973055
-0.00974858
-0.00894053
-0.00723799
-0.00505523
-0.00296486
-0.00139341
-0.00047333
-5.80038e-05
6.74567e-05
9.45369e-05
0.000110651
0.000143742
-0.0206506
-0.0179113
-0.0137174
-0.0112068
-0.00954117
-0.00836066
-0.00747073
-0.00678403
-0.00626953
-0.00590496
-0.00566275
-0.00551532
-0.00543895
-0.00541545
-0.00543512
-0.00549798
-0.0056021
-0.00573745
-0.0058875
-0.00605888
-0.00628495
-0.00659694
-0.00700372
-0.00749166
-0.00804395
-0.00864023
-0.00922936
-0.00971053
-0.00979833
-0.00909889
-0.00747275
-0.0053
-0.00315609
-0.00150204
-0.000511691
-5.75062e-05
8.07886e-05
0.000107392
0.000118082
0.00014964
-0.0257838
-0.0213981
-0.0154516
-0.0120476
-0.00996539
-0.00859225
-0.00762538
-0.00691142
-0.00638124
-0.00599836
-0.00573473
-0.00556576
-0.00547029
-0.00543147
-0.00543886
-0.0054899
-0.00558255
-0.00571
-0.00586004
-0.00603548
-0.00626098
-0.00656445
-0.00695842
-0.00743527
-0.00798065
-0.00857501
-0.00916512
-0.00965818
-0.00979817
-0.00918447
-0.00764516
-0.0055029
-0.00332809
-0.00160665
-0.000551954
-5.89639e-05
9.3486e-05
0.000120495
0.000126096
0.000155915
-0.041568
-0.0282151
-0.0184341
-0.0133198
-0.0105362
-0.00886521
-0.00777812
-0.00701937
-0.00646998
-0.00607214
-0.00579229
-0.00560629
-0.00549474
-0.0054421
-0.00543783
-0.00547778
-0.00555961
-0.00567858
-0.00582583
-0.00600223
-0.00622587
-0.00652072
-0.00690115
-0.00736459
-0.00789948
-0.00848746
-0.00907792
-0.0095812
-0.00976751
-0.0092149
-0.0077599
-0.00566288
-0.00347729
-0.00170345
-0.000591465
-6.11188e-05
0.000105911
0.000133842
0.000134607
0.000162368
-0.0865715
-0.0382301
-0.0219922
-0.0147848
-0.0111728
-0.00915221
-0.00792267
-0.00710916
-0.00653823
-0.00612778
-0.00583582
-0.00563683
-0.0055123
-0.00544777
-0.00543295
-0.00546274
-0.00553453
-0.00564493
-0.00578759
-0.00596235
-0.00618254
-0.00646844
-0.00683509
-0.00728373
-0.00780536
-0.00838284
-0.00896882
-0.00947742
-0.00970878
-0.00921944
-0.00782741
-0.00578084
-0.00360028
-0.00178893
-0.000627888
-6.29917e-05
0.000118231
0.000147332
0.000143791
0.000168777
-0.0460539
-0.0290194
-0.0195197
-0.013692
-0.0105874
-0.00878929
-0.00768267
-0.00695092
-0.00643897
-0.00606999
-0.00580498
-0.00562162
-0.00550474
-0.00544285
-0.0054277
-0.00545497
-0.00552242
-0.00562774
-0.00576675
-0.00594002
-0.00615853
-0.00643915
-0.00679535
-0.00722954
-0.00773419
-0.00829248
-0.00885814
-0.00934537
-0.00957499
-0.00912414
-0.00776938
-0.00577506
-0.00363194
-0.00183197
-0.000656414
-7.11793e-05
0.000123095
0.000156785
0.000151767
0.000175053
-0.0282322
-0.021988
-0.0169982
-0.0125862
-0.0100387
-0.00847676
-0.00748716
-0.00682257
-0.00635401
-0.00601442
-0.00576907
-0.0055982
-0.00548864
-0.00543062
-0.00541715
-0.00544448
-0.00551073
-0.00561421
-0.005752
-0.00592515
-0.00614333
-0.00642145
-0.00677198
-0.00719777
-0.00769178
-0.00823656
-0.00878551
-0.0092511
-0.00946194
-0.0090242
-0.00769795
-0.00573021
-0.00360952
-0.00182913
-0.000657339
-6.64853e-05
0.000132459
0.000167322
0.000160063
0.000181213
-0.0191614
-0.0172789
-0.0146066
-0.0114283
-0.00942293
-0.00811473
-0.00725784
-0.00667106
-0.00625269
-0.00594703
-0.00572462
-0.00556872
-0.0054684
-0.00541567
-0.00540485
-0.00543293
-0.00549846
-0.00560037
-0.00573683
-0.00590937
-0.00612657
-0.00640163
-0.00674591
-0.00716241
-0.00764429
-0.00817331
-0.00870234
-0.00914236
-0.00932748
-0.00889533
-0.00760496
-0.00567155
-0.00357545
-0.00181464
-0.000653341
-6.09461e-05
0.000141139
0.000177063
0.000167955
0.000187014
-0.0137137
-0.013833
-0.012501
-0.0103133
-0.00879062
-0.00773086
-0.00701066
-0.00650602
-0.00614099
-0.00587155
-0.00567388
-0.00553448
-0.00544468
-0.00539825
-0.00539085
-0.00542024
-0.00548548
-0.00558608
-0.00572119
-0.00589273
-0.00610844
-0.00637999
-0.00671761
-0.00712419
-0.00759285
-0.00810448
-0.00861132
-0.00902324
-0.00917885
-0.00874594
-0.00748906
-0.00559541
-0.00353082
-0.00179088
-0.000644289
-5.55116e-05
0.000148702
0.000185853
0.000175288
0.000192383
-0.0102608
-0.0112324
-0.0107329
-0.00930054
-0.00818279
-0.00735012
-0.00676099