/*--------------------------------*- C++ -*----------------------------------*\
| =========                 |                                                 |
| \\      /  F ield         | OpenFOAM: The Open Source CFD Toolbox           |
|  \\    /   O peration     | Version:  2312                                  |
|   \\  /    A nd           | Website:  www.openfoam.com                      |
|    \\/     M anipulation  |                                                 |
\*---------------------------------------------------------------------------*/
FoamFile
{
    version     2.0;
    format      ascii;
    arch        "LSB;label=32;scalar=64";
    class       surfaceScalarField;
    location    "13117.4";
    object      phi;
}
// * * * * * * * * * * * * * * * * * * * * * * * * * * * * * * * * * * * * * //

dimensions      [0 3 -1 0 0 0 0];

oriented        oriented;

internalField   nonuniform List<scalar> 
7405
(
9.02239e-06
-2.26344e-05
1.90834e-05
-2.31655e-05
2.91108e-05
-2.23082e-05
3.86956e-05
-2.08951e-05
4.74953e-05
-1.89619e-05
5.51351e-05
-1.64407e-05
6.11912e-05
-1.3256e-05
6.51993e-05
-9.36429e-06
6.66936e-05
-4.80572e-06
6.53425e-05
1.67132e-07
6.00419e-05
5.30062e-06
4.98666e-05
1.01754e-05
3.50303e-05
1.48362e-05
1.58358e-05
1.91946e-05
-7.24473e-06
2.30805e-05
-3.35134e-05
2.62687e-05
-6.22751e-05
2.87616e-05
-9.29479e-05
3.06728e-05
-0.000125066
3.21185e-05
-0.000158292
3.32251e-05
-0.000182028
2.37364e-05
-0.000204359
2.23306e-05
-0.000225248
2.08897e-05
-0.000244599
1.93508e-05
-0.000262171
1.75723e-05
-0.000277557
1.53857e-05
-0.000290142
1.25852e-05
-0.000299086
8.94403e-06
-0.000303276
4.19e-06
-0.000302194
-1.96809e-06
-0.000296794
-9.43227e-06
-0.000286548
-1.80137e-05
-0.000270994
-2.7632e-05
-0.000249733
-3.8205e-05
-0.000222467
-4.96035e-05
-0.000188977
-6.16983e-05
-0.000149342
-7.40703e-05
-0.000103958
-8.62878e-05
-5.37041e-05
-9.77937e-05
-0.000108382
9.58601e-06
-3.22205e-05
1.82802e-05
-3.18597e-05
2.6815e-05
-3.0843e-05
3.52233e-05
-2.93034e-05
4.32883e-05
-2.7027e-05
5.06686e-05
-2.38209e-05
5.69173e-05
-1.95048e-05
6.14806e-05
-1.39275e-05
6.36942e-05
-7.0193e-06
6.27253e-05
1.13596e-06
5.77976e-05
1.02283e-05
4.8075e-05
1.9898e-05
3.32036e-05
2.97076e-05
1.32228e-05
3.91753e-05
-1.14132e-05
4.77164e-05
-3.99159e-05
5.47714e-05
-7.13121e-05
6.01578e-05
-0.000104653
6.40139e-05
-0.000139079
6.6544e-05
-0.00017379
6.79362e-05
-0.000197684
4.76303e-05
-0.000219363
4.40098e-05
-0.00023868
4.02064e-05
-0.000255371
3.60423e-05
-0.00026908
3.12806e-05
-0.000279367
2.5673e-05
-0.000285759
1.89771e-05
-0.000287819
1.10047e-05
-0.000285267
1.63786e-06
-0.000278118
-9.11702e-06
-0.000266425
-2.11256e-05
-0.000250169
-3.42695e-05
-0.000229393
-4.84076e-05
-0.000204249
-6.33493e-05
-0.000175019
-7.8833e-05
-0.000142345
-9.43729e-05
-0.000107193
-0.000109222
-7.07247e-05
-0.000122756
-3.43512e-05
-0.000134167
-0.000142733
9.17838e-06
-4.13989e-05
1.88146e-05
-4.1496e-05
2.85615e-05
-4.05899e-05
3.82256e-05
-3.89676e-05
4.75623e-05
-3.63637e-05
5.62521e-05
-3.25107e-05
6.38867e-05
-2.71395e-05
6.99485e-05
-1.99893e-05
7.3779e-05
-1.08498e-05
7.45658e-05
3.49194e-07
7.13751e-05
1.3419e-05
6.33223e-05
2.79508e-05
4.97419e-05
4.3288e-05
3.0357e-05
5.85603e-05
5.32805e-06
7.27453e-05
-2.46231e-05
8.47225e-05
-5.81436e-05
9.36783e-05
-9.36892e-05
9.95595e-05
-0.00012977
0.000102625
-0.000164996
0.000103163
-0.000188429
7.10625e-05
-0.000208806
6.43874e-05
-0.000225974
5.73736e-05
-0.000239746
4.98142e-05
-0.000249919
4.14537e-05
-0.000256293
3.20467e-05
-0.00025873
2.14147e-05
-0.000257204
9.47824e-06
-0.000251805
-3.76081e-06
-0.000242717
-1.82046e-05
-0.000230097
-3.37461e-05
-0.000214097
-5.02685e-05
-0.000194899
-6.76061e-05
-0.000172727
-8.5521e-05
-0.000147914
-0.000103646
-0.000120875
-0.000121412
-9.19572e-05
-0.00013814
-6.16593e-05
-0.000153054
-3.07247e-05
-0.000165102
-0.000173458
1.05195e-05
-5.19184e-05
2.14395e-05
-5.2416e-05
3.25314e-05
-5.16819e-05
4.36581e-05
-5.00942e-05
5.46102e-05
-4.73158e-05
6.51007e-05
-4.30012e-05
7.47545e-05
-3.67933e-05
8.30913e-05
-2.83261e-05
8.94994e-05
-1.72579e-05
9.31984e-05
-3.34979e-06
9.32345e-05
1.33829e-05
8.85735e-05
3.26118e-05
7.81954e-05
5.36662e-05
6.13375e-05
7.54182e-05
3.77226e-05
9.63602e-05
7.68377e-06
0.000114761
-2.7491e-05
0.000128853
-6.54145e-05
0.000137483
-0.000103513
0.000140724
-0.000139589
0.000139238
-0.000162703
9.41769e-05
-0.000181992
8.36764e-05
-0.000197478
7.28598e-05
-0.000209229
6.15642e-05
-0.000217326
4.9551e-05
-0.000221879
3.66e-05
-0.00022303
2.25657e-05
-0.000220953
7.40094e-06
-0.000215856
-8.85726e-06
-0.000207946
-2.61152e-05
-0.000197392
-4.42998e-05
-0.000184348
-6.33118e-05
-0.000168935
-8.30194e-05
-0.000151229
-0.000103226
-0.000131252
-0.000123622
-0.000108935
-0.000143729
-8.42468e-05
-0.000162828
-5.73919e-05
-0.000179909
-2.89881e-05
-0.000193506
-0.000202447
1.18034e-05
-6.37218e-05
2.42977e-05
-6.49103e-05
3.71944e-05
-6.45786e-05
5.03538e-05
-6.32536e-05
6.3575e-05
-6.0537e-05
7.65836e-05
-5.60099e-05
8.90214e-05
-4.9231e-05
0.000100428
-3.9733e-05
0.000110214
-2.70437e-05
0.000117611
-1.07469e-05
0.000121605
9.38907e-06
0.000121096
3.31207e-05
0.000114839
5.99233e-05
0.000101634
8.86232e-05
8.06474e-05
0.000117347
5.17713e-05
0.000143638
1.58676e-05
0.000164757
-2.47101e-05
0.000178061
-6.60638e-05
0.000182077
-0.000104359
0.000177533
-0.000128189
0.000118007
-0.000147432
0.000102919
-0.000162327
8.77552e-05
-0.000173221
7.24579e-05
-0.000180483
5.68129e-05
-0.000184472
4.05891e-05
-0.000185519
2.36122e-05
-0.000183921
5.80252e-06
-0.000179966
-1.28118e-05
-0.000173912
-3.21695e-05
-0.000165957
-5.22546e-05
-0.000156214
-7.30544e-05
-0.000144691
-9.45423e-05
-0.000131276
-0.000116641
-0.000115732
-0.000139165
-9.77301e-05
-0.00016173
-7.69672e-05
-0.00018359
-5.33429e-05
-0.000203533
-2.73435e-05
-0.000219506
-0.000229792
1.32097e-05
-7.69316e-05
2.73676e-05
-7.90682e-05
4.21621e-05
-7.93731e-05
5.74597e-05
-7.85512e-05
7.30674e-05
-7.61447e-05
8.87185e-05
-7.16609e-05
0.000104063
-6.45754e-05
0.000118652
-5.4322e-05
0.000131912
-4.03036e-05
0.000143102
-2.1937e-05
0.000151251
1.24051e-06
0.000155124
2.92471e-05
0.000153351
6.16966e-05
0.000144431
9.75435e-05
0.000127012
0.000134765
0.000100366
0.000170284
6.49333e-05
0.000200189
2.26778e-05
0.000220316
-2.23711e-05
0.000227126
-6.44088e-05
0.000219571
-8.99827e-05
0.000143581
-0.000110082
0.000123019
-0.000125143
0.000102815
-0.000135771
8.30866e-05
-0.000142619
6.36602e-05
-0.00014631
4.42801e-05
-0.000147405
2.47068e-05
-0.000146376
4.7734e-06
-0.000143627
-1.55607e-05
-0.000139485
-3.63113e-05
-0.000134169
-5.7571e-05
-0.000127752
-7.94716e-05
-0.000120144
-0.00010215
-0.000111079
-0.000125705
-0.000100114
-0.000150129
-8.66581e-05
-0.000175185
-7.00515e-05
-0.000200196
-4.97405e-05
-0.000223843
-2.59914e-05
-0.000243254
-0.000255782
1.45258e-05
-9.14574e-05
3.02459e-05
-9.47883e-05
4.6837e-05
-9.59641e-05
6.41664e-05
-9.58807e-05
8.20382e-05
-9.40164e-05
0.000100181
-8.98033e-05
0.000118239
-8.26342e-05
0.000135765
-7.18476e-05
0.000152192
-5.67304e-05
0.000166802
-3.65471e-05
0.000178664
-1.06212e-05
0.000186448
2.14632e-05
0.000188729
5.94156e-05
0.000183855
0.000102418
0.00017014
0.00014848
0.000146314
0.00019411
0.000112233
0.00023427
6.96215e-05
0.000262928
2.2339e-05
0.000274409
-2.34551e-05
0.000265365
-5.12152e-05
0.000171341
-7.24654e-05
0.000144269
-8.78274e-05
0.000118177
-9.81544e-05
9.34136e-05
-0.000104374
6.98801e-05
-0.00010739
4.72957e-05
-0.000108028
2.53447e-05
-0.000106989
3.73385e-06
-0.000104842
-1.77069e-05
-0.000102033
-3.91208e-05
-9.88418e-05
-6.07626e-05
-9.53606e-05
-8.29535e-05
-9.14695e-05
-0.000106042
-8.68143e-05
-0.000130361
-8.0782e-05
-0.000156162
-7.24963e-05
-0.00018347
-6.08385e-05
-0.000211854
-4.46948e-05
-0.000239986
-2.40011e-05
-0.000263946
-0.000279779
1.56906e-05
-0.000107148
3.27844e-05
-0.000111882
5.09569e-05
-0.000114137
7.00658e-05
-0.00011499
8.9895e-05
-0.000113846
0.000110148
-0.000110056
0.000130445
-0.000102931
0.000150314
-9.17169e-05
0.000169177
-7.55925e-05
0.000186315
-5.36858e-05
0.000200821
-2.51269e-05
0.000211468
1.08169e-05
0.00021676
5.41233e-05
0.000214984
0.000104193
0.000204323
0.000159141
0.000183225
0.000215208
0.000151129
0.000266366
0.000109432
0.000304625
6.21353e-05
0.000321705
1.52446e-05
0.000312256
-1.37013e-05
0.000200287
-3.56027e-05
0.000166171
-5.07229e-05
0.000133298
-6.02009e-05
0.000102892
-6.52094e-05
7.48888e-05
-6.68841e-05
4.89705e-05
-6.62795e-05
2.47402e-05
-6.43159e-05
1.7702e-06
-6.17588e-05
-2.02639e-05
-5.92234e-05
-4.16567e-05
-5.71306e-05
-6.28555e-05
-5.57053e-05
-8.43798e-05
-5.49358e-05
-0.000106811
-5.45201e-05
-0.000130778
-5.37819e-05
-0.000156901
-5.15934e-05
-0.000185661
-4.63341e-05
-0.000217115
-3.61535e-05
-0.000250167
-2.03079e-05
-0.000279789
-0.00030008
1.66702e-05
-0.000123818
3.49153e-05
-0.000130127
5.44097e-05
-0.000133631
7.49826e-05
-0.000135563
9.63741e-05
-0.000135237
0.000118237
-0.000131919
0.000140136
-0.000124831
0.000161551
-0.000113132
0.000181864
-9.59053e-05
0.000200346
-7.21675e-05
0.000216118
-4.08992e-05
0.000228086
-1.15083e-06
0.000234733
4.74757e-05
0.000234433
0.000104493
0.000225473
0.000168102
0.000206369
0.000234311
0.000176533
0.000296202
0.000137253
0.000343905
9.24811e-05
0.000366478
4.83232e-05
0.000356414
2.09932e-05
0.000227617
4.55729e-07
0.000186708
-1.32405e-05
0.000146994
-2.10128e-05
0.000110664
-2.40473e-05
7.79235e-05
-2.35852e-05
4.85086e-05
-2.08148e-05
2.19701e-05
-1.68162e-05
-2.22812e-06
-1.25503e-05
-2.45295e-05
-8.8123e-06
-4.53948e-05
-6.25152e-06
-6.5416e-05
-5.3715e-06
-8.52607e-05
-6.46671e-06
-0.000105716
-9.52103e-06
-0.000127726
-1.40313e-05
-0.000152391
-1.88158e-05
-0.000180879
-2.18652e-05
-0.000214068
-2.04651e-05
-0.000251568
-1.27672e-05
-0.000287486
-0.000312841
1.75618e-05
-0.00014138
3.67838e-05
-0.000149349
5.73502e-05
-0.000154198
7.90506e-05
-0.000157263
0.000101555
-0.000157742
0.000124432
-0.000154795
0.000147154
-0.000147553
0.000169109
-0.000135087
0.000189607
-0.000116403
0.000207887
-9.04476e-05
0.000223117
-5.61293e-05
0.000234367
-1.24009e-05
0.000240301
4.15415e-05
0.000239489
0.000105306
0.00023062
0.00017697
0.000212734
0.000252197
0.000185716
0.000323221
0.000151088
0.000378533
0.000112614
0.000404952
7.57489e-05
0.000393279
5.34236e-05
0.000249942
3.7176e-05
0.000202956
2.68367e-05
0.000157334
2.19721e-05
0.000115529
2.16684e-05
7.82275e-05
2.48571e-05
4.53202e-05
3.04709e-05
1.63567e-05
3.74328e-05
-9.18967e-06
4.46672e-05
-3.17633e-05
5.11167e-05
-5.18439e-05
5.57869e-05
-7.00857e-05
5.77904e-05
-8.72641e-05
5.64276e-05
-0.000104353
5.13004e-05
-0.000122601
4.25177e-05
-0.000143608
3.09323e-05
-0.000169296
1.84732e-05
-0.000201608
7.97872e-06
-0.000241074
2.45395e-06
-0.000281962
-0.000310392
1.82679e-05
-0.000159648
3.82792e-05
-0.000169361
5.971e-05
-0.000175628
8.22898e-05
-0.000179843
0.000105587
-0.000181039
0.000129048
-0.000178255
0.000152011
-0.000170516
0.000173719
-0.000156795
0.000193327
-0.000136012
0.000209921
-0.000107042
0.000222536
-6.87437e-05
0.000230204
-2.00688e-05
0.000232198
3.95471e-05
0.000228053
0.000109451
0.000217496
0.000187527
0.000200518
0.000269176
0.00017771
0.000346028
0.000150671
0.000405572
0.000122027
0.000433596
9.47431e-05
0.000420562
7.89918e-05
0.000265694
6.81248e-05
0.000213823
6.23574e-05
0.000163101
6.17264e-05
0.00011616
6.58585e-05
7.40955e-05
7.40543e-05
3.71244e-05
8.58055e-05
4.60583e-06
9.85648e-05
-2.19488e-05
0.000111362
-4.45599e-05
0.000122765
-6.32465e-05
0.000131453
-7.87729e-05
0.000136317
-9.21283e-05
0.000136464
-0.000104499
0.000131271
-0.000117407
0.000120495
-0.000132831
0.000104376
-0.000153175
8.36209e-05
-0.000180847
5.78997e-05
-0.000215349
3.25279e-05
-0.000256592
-0.000277881
1.83593e-05
-0.000178007
3.87843e-05
-0.000189786
6.06433e-05
-0.000197487
8.34705e-05
-0.00020267
0.000106642
-0.000204211
0.000129429
-0.000201043
0.000151025
-0.000192112
0.000170558
-0.000176327
0.000187127
-0.00015258
0.000199851
-0.000119766
0.00020788
-7.67727e-05
0.000210496
-2.26845e-05
0.000207388
4.26543e-05
0.000200007
0.000116832
0.000189483
0.000198052
0.000177192
0.000281467
0.000164878
0.000358342
0.000154319
0.000416131
0.000146631
0.000441284
0.000141831
0.000425362
0.000136905
0.00027062
0.000134426
0.000216302
0.000135176
0.000162351
0.000139705
0.00011163
0.000148321
6.54796e-05
0.000160757
2.46884e-05
0.000175652
-1.02901e-05
0.000193487
-3.97838e-05
0.000211133
-6.22058e-05
0.000226694
-7.88081e-05
0.000238952
-9.10311e-05
0.000246994
-0.00010017
0.000250097
-0.000107602
0.000248008
-0.000115316
0.000240758
-0.000125582
0.00022777
-0.000140186
0.000206091
-0.000159166
0.000171034
-0.00018029
0.00010618
-0.000191735
-0.00017171
1.73289e-06
-0.00017974
3.73517e-06
-0.000191788
6.20911e-06
-0.000199961
9.49464e-06
-0.000205956
1.39514e-05
-0.000208667
1.99995e-05
-0.000207091
2.81976e-05
-0.00020031
3.9218e-05
-0.000187347
5.39016e-05
-0.000167264
7.3388e-05
-0.000139252
9.91456e-05
-0.00010253
0.000132821
-5.636e-05
0.000174818
6.57749e-07
0.000224963
6.66864e-05
0.000282348
0.000140667
0.000344896
0.000218919
0.000407751
0.000295487
0.000462713
0.000361169
0.000499046
0.000404951
0.000506221
0.000418187
0.000491724
0.000285117
0.000461766
0.000246259
0.000420447
0.000203671
0.00037156
0.000160517
0.000318014
0.000119025
0.000262144
8.05581e-05
0.000206122
4.57312e-05
0.000151588
1.475e-05
0.000100923
-1.15408e-05
5.48183e-05
-3.27032e-05
1.24548e-05
-4.86677e-05
-2.76975e-05
-6.00181e-05
-6.78587e-05
-6.74404e-05
-0.000111271
-7.19034e-05
-0.000161465
-7.53879e-05
-0.000221685
-7.99664e-05
-0.000294215
-8.66362e-05
-0.000380093
-9.44117e-05
-0.000473797
-9.80305e-05
-9.35181e-05
-0.000551988
-1.07905e-06
-0.000178661
-1.71217e-06
-0.000191155
-1.84331e-06
-0.00019983
-1.25663e-06
-0.000206542
3.66742e-07
-0.000210291
3.43076e-06
-0.000210155
8.40128e-06
-0.000205281
1.58054e-05
-0.000194752
2.61823e-05
-0.000177641
4.03566e-05
-0.000153426
5.93328e-05
-0.000121506
8.4455e-05
-8.14822e-05
0.000117882
-3.27691e-05
0.000159128
2.54403e-05
0.000208567
9.12275e-05
0.000265478
0.000162008
0.000327408
0.000233558
0.00038934
0.000299237
0.000443655
0.000350636
0.00048171
0.000380132
0.000494623
0.000272205
0.000493392
0.00024749
0.000479708
0.000217354
0.000455565
0.00018466
0.000422911
0.000151679
0.000383359
0.000120111
0.000337937
9.1153e-05
0.000287108
6.55788e-05
0.000231828
4.37393e-05
0.000173045
2.60792e-05
0.000111001
1.3377e-05
4.48387e-05
6.1438e-06
-2.76347e-05
5.03292e-06
-0.000110579
1.10406e-05
-0.000208435
2.24681e-05
-0.000324438
3.60367e-05
-0.000457194
4.61197e-05
-0.000600488
4.88825e-05
-0.000744573
4.60554e-05
4.05188e-05
-0.000878609
-2.19591e-06
-0.000176465
-4.19509e-06
-0.000189156
-5.91174e-06
-0.000198114
-7.14087e-06
-0.000205313
-7.57858e-06
-0.000209853
-6.82873e-06
-0.000210905
-4.46376e-06
-0.000207646
1.72517e-08
-0.000199233
7.1623e-06
-0.000184786
1.74844e-05
-0.000163748
3.14605e-05
-0.000135482
5.00659e-05
-0.000100088
7.47276e-05
-5.74308e-05
0.00010734
-7.17246e-06
0.000148399
5.01687e-05
0.000198102
0.000112305
0.000255258
0.000176402
0.000316658
0.000237837
0.000376832
0.000290462
0.000428765
0.000328198
0.000457151
0.000243819
0.00047458
0.00023006
0.000481453
0.000210481
0.000478809
0.000187304
0.000468086
0.000162403
0.000450919
0.000137278
0.000428982
0.00011309
0.00040385
9.071e-05
0.000376815
7.07745e-05
0.000349076
5.38183e-05
0.000322075
4.0378e-05
0.000297222
3.09969e-05
0.000276063
2.61921e-05
0.000260784
2.63195e-05
0.000252066
3.11863e-05
0.00024839
3.97131e-05
0.000244722
4.97878e-05
0.000234621
5.8984e-05
0.000215007
6.56688e-05
6.92506e-05
0.000186275
-3.08327e-06
-0.000173382
-6.13541e-06
-0.000186104
-9.049e-06
-0.0001952
-1.16332e-05
-0.000202729
-1.36123e-05
-0.000207874
-1.46446e-05
-0.000209872
-1.43282e-05
-0.000207962
-1.21898e-05
-0.000201371
-7.63262e-06
-0.000189343
-1.85007e-07
-0.000171196
1.06332e-05
-0.000146301
2.52158e-05
-0.00011467
4.43238e-05
-7.65388e-05
6.96236e-05
-3.24722e-05
0.000102451
1.7341e-05
0.000143598
7.11585e-05
0.000193146
0.000126853
0.000249508
0.000181475
0.000309136
0.000230833
0.000366953
0.000270382
0.000404029
0.000206742
0.000433512
0.000200578
0.000454947
0.000189046
0.000468455
0.000173796
0.00047458
0.000156277
0.00047415
0.000137708
0.000468155
0.000119085
0.000457679
0.000101186
0.000443844
8.46099e-05
0.000427852
6.981e-05
0.000411078
5.71526e-05
0.000395114
4.69609e-05
0.00038177
3.95355e-05
0.000372959
3.51315e-05
0.000370275
3.38697e-05
0.000374413
3.55751e-05
0.000384551
3.96495e-05
0.000398414
4.51216e-05
0.000413157
5.09247e-05
5.61025e-05
0.000426305
-3.74523e-06
-0.000169637
-7.61356e-06
-0.000182235
-1.14738e-05
-0.00019134
-1.5144e-05
-0.000199059
-1.83611e-05
-0.000204657
-2.07968e-05
-0.000207437
-2.20639e-05
-0.000206695
-2.17229e-05
-0.000201712
-1.92899e-05
-0.000191776
-1.42477e-05
-0.000176238
-5.96192e-06
-0.000154586
5.90594e-06
-0.000126538
2.16855e-05
-9.23184e-05
4.19418e-05
-5.27285e-05
6.82647e-05
-8.98189e-06
0.000101654
3.77694e-05
0.000143047
8.54604e-05
0.000192249
0.000132273
0.000247462
0.000175621
0.000305423
0.00021242
0.0003459
0.000166265
0.000381759
0.000164719
0.000412196
0.000158609
0.000436871
0.000149122
0.000455831
0.000137317
0.000469419
0.000124121
0.000478178
0.000110325
0.000482781
9.65831e-05
0.000483974
8.3417e-05
0.000482547
7.12371e-05
0.00047934
6.03596e-05
0.000475275
5.10264e-05
0.000471389
4.34211e-05
0.000468842
3.76785e-05
0.000468832
3.38793e-05
0.000472384
3.20234e-05
0.000480043
3.19906e-05
0.000491643
3.35206e-05
0.000506322
3.62462e-05
3.97642e-05
0.00052266
-4.2872e-06
-0.00016535
-8.83225e-06
-0.00017769
-1.34859e-05
-0.000186686
-1.80792e-05
-0.000194466
-2.23657e-05
-0.00020037
-2.60317e-05
-0.00020377
-2.86989e-05
-0.000204028
-2.99313e-05
-0.00020048
-2.92508e-05
-0.000192456
-2.61597e-05
-0.000179329
-2.01527e-05
-0.000160593
-1.07049e-05
-0.000135986
2.58191e-06
-0.000105605
1.99021e-05
-7.00487e-05
4.16967e-05
-3.07766e-05
6.9138e-05
1.03281e-05
0.000103272
5.13266e-05
0.000144921
9.06238e-05
0.000193656
0.000126886
0.000247751
0.000158325
0.000287693
0.000126324
0.000325324
0.000127087
0.000359744
0.000124189
0.000390388
0.000118478
0.000416994
0.000110711
0.000439553
0.000101562
0.00045825
9.1628e-05
0.000473415
8.14183e-05
0.000485475
7.1357e-05
0.000494924
6.17885e-05
0.000502299
5.29844e-05
0.000508173
4.51522e-05
0.000513152
3.8442e-05
0.000517877
3.29534e-05
0.000523016
2.87404e-05
0.000529224
2.58148e-05
0.000537066
2.41484e-05
0.00054691
2.36769e-05
0.00055884
2.43161e-05
2.59928e-05
0.000572611
-4.75124e-06
-0.000160599
-9.87995e-06
-0.000172562
-1.5225e-05
-0.000181341
-2.06345e-05
-0.000189056
-2.58855e-05
-0.00019512
-3.06881e-05
-0.000198968
-3.46836e-05
-0.000200032
-3.74456e-05
-0.000197717
-3.84905e-05
-0.000191411
-3.73023e-05
-0.000180517
-3.33716e-05
-0.000164524
-2.62336e-05
-0.000143124
-1.54646e-05
-0.000116374
-6.53148e-07
-8.48602e-05
1.82525e-05
-4.96822e-05
4.16067e-05
-1.30261e-05
7.01035e-05
2.28298e-05
0.000104934
5.57933e-05
0.000146653
8.51668e-05
0.000194732
0.000110246
0.000231624
8.9432e-05
0.000267797
9.09139e-05
0.00030242
8.95659e-05
0.000334889
8.60101e-05
0.000364818
8.07808e-05
0.000392021
7.43599e-05
0.000416467
6.71816e-05
0.000438256
5.96289e-05
0.000457582
5.20317e-05
0.000474702
4.46678e-05
0.00048992
3.77662e-05
0.000503563
3.15097e-05
0.000515967
2.60376e-05
0.000527474
2.14466e-05
0.000538422
1.77913e-05
0.000549147
1.50896e-05
0.000559966
1.33295e-05
0.000571164
1.24792e-05
0.000582964
1.25159e-05
1.34552e-05
0.000595501
-5.1669e-06
-0.000155432
-1.08152e-05
-0.000166913
-1.67787e-05
-0.000175378
-2.29261e-05
-0.000182909
-2.90633e-05
-0.000188982
-3.49337e-05
-0.000193097
-4.02131e-05
-0.000194753
-4.45049e-05
-0.000193426
-4.73426e-05
-0.000188574
-4.82041e-05
-0.000179656
-4.65463e-05
-0.000166182
-4.1863e-05
-0.000147807
-3.37476e-05
-0.00012449
-2.18959e-05
-9.67119e-05
-5.91277e-06
-6.56654e-05
1.42447e-05
-3.31836e-05
3.87813e-05
-1.70685e-06
6.79408e-05
2.66337e-05
0.000102949
5.01584e-05
0.000144062
6.9133e-05
0.000176358
5.71356e-05
0.000208806
5.84664e-05
0.000240714
5.76579e-05
0.00027154
5.5184e-05
0.000300893
5.14275e-05
0.000328523
4.67303e-05
0.000354297
4.14067e-05
0.000378187
3.57391e-05
0.000400242
2.99767e-05
0.000420574
2.43356e-05
0.000439342
1.89981e-05
0.000456735
1.41163e-05
0.000472956
9.8164e-06
0.000488202
6.20073e-06
0.000502664
3.32972e-06
0.000516519
1.23402e-06
0.000529916
-6.76571e-08
0.000543055
-6.59979e-07
0.000556067
-4.95866e-07
4.16452e-07
0.000569106
-5.54397e-06
-0.000149888
-1.16558e-05
-0.000160802
-1.81711e-05
-0.000168862
-2.49803e-05
-0.0001761
-3.19212e-05
-0.000182041
-3.87768e-05
-0.000186242
-4.52683e-05
-0.000188261
-5.10486e-05
-0.000187645
-5.56984e-05
-0.000183924
-5.87304e-05
-0.000176624
-5.96086e-05
-0.000165304
-5.77935e-05
-0.000149622
-5.28185e-05
-0.000129465
-4.43756e-05
-0.000105155
-3.22974e-05
-7.77436e-05
-1.62925e-05
-4.91886e-05
3.9817e-06
-2.19811e-05
2.85879e-05
2.02745e-06
5.75484e-05
2.11979e-05
9.13915e-05
3.52898e-05
0.000118164
3.03631e-05
0.000145317
3.1313e-05
0.000172314
3.06613e-05
0.000198702
2.87959e-05
0.000224137
2.59925e-05
0.000248369
2.24986e-05
0.000271207
1.85682e-05
0.000292527
1.44187e-05
0.000312264
1.02405e-05
0.000330386
6.2129e-06
0.000346895
2.48987e-06
0.000361826
-8.15402e-07
0.000375314
-3.67107e-06
0.000387521
-6.0073e-06
0.000398656
-7.80494e-06
0.000408937
-9.04718e-06
0.000418603
-9.73395e-06
0.000427822
-9.87829e-06
0.000436821
-9.49498e-06
-8.56265e-06
0.0004458
-5.87566e-06
-0.000144012
-1.23853e-05
-0.000154292
-1.93717e-05
-0.000161876
-2.67472e-05
-0.000168724
-3.43809e-05
-0.000174408
-4.2096e-05
-0.000178527
-4.96631e-05
-0.000180694
-5.67945e-05
-0.000180514
-6.31378e-05
-0.000177581
-6.8276e-05
-0.000171486
-7.17357e-05
-0.000161844
-7.30138e-05
-0.000148344
-7.16354e-05
-0.000130843
-6.72508e-05
-0.000109539
-5.97356e-05
-8.52589e-05
-4.91224e-05
-5.98018e-05
-3.51759e-05
-3.59277e-05
-1.6987e-05
-1.61614e-05
5.49474e-06
-1.28392e-06
3.18053e-05
8.97927e-06
5.23788e-05
9.78958e-06
7.3083e-05
1.06088e-05
9.34515e-05
1.02927e-05
0.000113033
9.21438e-06
0.000131551
7.4747e-06
0.00014882
5.22982e-06
0.000164575
2.81298e-06
0.000178573
4.20704e-07
0.000190666
-1.85295e-06
0.000200843
-3.96327e-06
0.000209193
-5.86015e-06
0.000215875
-7.49777e-06
0.00022104
-8.83576e-06
0.000224877
-9.84443e-06
0.000227583
-1.0511e-05
0.000229377
-1.08408e-05
0.000230492
-1.08492e-05
0.000231173
-1.05589e-05
0.000231674
-9.99627e-06
-9.14401e-06
0.000232256
-6.14371e-06
-0.000137869
-1.29635e-05
-0.000147472
-2.03141e-05
-0.000154525
-2.81276e-05
-0.000160911
-3.6301e-05
-0.000166234
-4.4694e-05
-0.000170134
-5.31235e-05
-0.000172265
-6.13591e-05
-0.000172279
-6.91189e-05
-0.000169821
-7.60689e-05
-0.000164536
-8.18293e-05
-0.000156084
-8.59928e-05
-0.000144181
-8.81677e-05
-0.000128668
-8.80582e-05
-0.000109649
-8.55897e-05
-8.77274e-05
-8.09996e-05
-6.4392e-05
-7.45763e-05
-4.2351e-05
-6.58388e-05
-2.48989e-05
-5.35498e-05
-1.35729e-05
-3.74936e-05
-7.07686e-06
-2.48263e-05
-2.87767e-06
-1.23526e-05
-1.86489e-06
-5.90471e-07
-1.46939e-06
1.00504e-05
-1.42646e-06
1.92523e-05
-1.72721e-06
2.6822e-05
-2.33979e-06
3.27189e-05
-3.08396e-06
3.70012e-05
-3.86152e-06
3.97589e-05
-4.61062e-06
4.10763e-05
-5.28067e-06
4.10564e-05
-5.84023e-06
3.98415e-05
-6.28288e-06
3.76188e-05
-6.61308e-06
3.46101e-05
-6.83565e-06
3.10502e-05
-6.95106e-06
2.71713e-05
-6.96189e-06
2.31985e-05
-6.87623e-06
1.93474e-05
-6.70778e-06
1.58215e-05
-6.47028e-06
-6.15156e-06
1.28291e-05
-6.32487e-06
-0.000131544
-1.3341e-05
-0.000140456
-2.09189e-05
-0.000146948
-2.90066e-05
-0.000152823
-3.75237e-05
-0.000157717
-4.63588e-05
-0.000161299
-5.53657e-05
-0.000163257
-6.43605e-05
-0.000163284
-7.31187e-05
-0.000161063
-8.13763e-05
-0.000156278
-8.88372e-05
-0.000148623
-9.51909e-05
-0.000137827
-0.00010015
-0.000123709
-0.000103526
-0.000106273
-0.000105353
-8.59008e-05
-0.00010606
-6.36846e-05
-0.00010648
-4.1931e-05
-0.000107107
-2.4272e-05
-0.000107112
-1.35685e-05
-0.000105591
-8.59711e-06
-0.000103926
-4.54277e-06
-0.000102163
-3.62761e-06
-0.000100567
-3.06552e-06
-9.92839e-05
-2.70963e-06
-9.8478e-05
-2.53313e-06
-9.82932e-05
-2.52456e-06
-9.87241e-05
-2.65302e-06
-9.97047e-05
-2.88095e-06
-0.00010114
-3.17529e-06
-0.000102915
-3.50592e-06
-0.000104909
-3.84577e-06
-0.000107016
-4.17611e-06
-0.000109143
-4.48572e-06
-0.000111211
-4.76736e-06
-0.000113146
-5.01589e-06
-0.00011488
-5.22817e-06
-0.000116352
-5.4045e-06
-0.000117509
-5.55039e-06
-0.000118308
-5.67075e-06
-5.74729e-06
-0.000118712
-6.40282e-06
-0.000125142
-1.34858e-05
-0.000133374
-2.11369e-05
-0.000139297
-2.93162e-05
-0.000144644
-3.79589e-05
-0.000149074
-4.69741e-05
-0.000152284
-5.62413e-05
-0.00015399
-6.56075e-05
-0.000153917
-7.48857e-05
-0.000151785
-8.38557e-05
-0.000147308
-9.22702e-05
-0.000140208
-9.98705e-05
-0.000130227
-0.000106418
-0.000117161
-0.000111758
-0.000100934
-0.000115934
-8.17247e-05
-0.000119385
-6.02333e-05
-0.000123152
-3.81647e-05
-0.000128569
-1.88541e-05
-0.000135677
-6.4611e-06
-0.000143007
-1.26683e-06
-0.000147777
2.27736e-07
-0.000151854
4.48946e-07
-0.00015523
3.10119e-07
-0.000157928
-1.14134e-08
-0.000159985
-4.75931e-07
-0.000161492
-1.01688e-06
-0.000162534
-1.61154e-06
-0.000163184
-2.23096e-06
-0.000163508
-2.85098e-06
-0.00016356
-3.45363e-06
-0.000163383
-4.02298e-06
-0.000163012
-4.54701e-06
-0.00016248
-5.01759e-06
-0.000161817
-5.43029e-06
-0.000161049
-5.78353e-06
-0.0001602
-6.07805e-06
-0.000159286
-6.31771e-06
-0.000158326
-6.51086e-06
-0.000157332
-6.66462e-06
-6.75972e-06
-0.000156319
-6.38179e-06
-0.00011876
-1.34103e-05
-0.000126345
-2.09914e-05
-0.000131716
-2.90933e-05
-0.000136542
-3.76614e-05
-0.000140506
-4.66182e-05
-0.000143327
-5.58593e-05
-0.000144749
-6.52512e-05
-0.000144525
-7.46287e-05
-0.000142407
-8.37946e-05
-0.000138142
-9.25224e-05
-0.00013148
-0.000100566
-0.000122183
-0.000107682
-0.000110046
-0.000113666
-9.49497e-05
-0.000118437
-7.69538e-05
-0.000122184
-5.64869e-05
-0.000125614
-3.4735e-05
-0.000130146
-1.43221e-05
-0.000137087
4.79991e-07
-0.000145686
7.33267e-06
-0.000151872
6.41362e-06
-0.000157536
6.11262e-06
-0.000162575
5.3488e-06
-0.000166923
4.33723e-06
-0.000170594
3.19447e-06
-0.000173607
1.99622e-06
-0.00017601
7.91977e-07
-0.000177857
-3.84287e-07
-0.000179199
-1.50839e-06
-0.000180093
-2.55998e-06
-0.000180593
-3.52251e-06
-0.000180751
-4.3896e-06
-0.000180612
-5.15663e-06
-0.000180221
-5.82135e-06
-0.00017962
-6.38414e-06
-0.000178849
-6.84837e-06
-0.000177946
-7.22105e-06
-0.000176943
-7.51371e-06
-0.000175872
-7.73614e-06
-7.87134e-06
-0.00017476
-6.29347e-06
-0.000112467
-1.3181e-05
-0.000119458
-2.0588e-05
-0.000124309
-2.84884e-05
-0.000128642
-3.6835e-05
-0.000132159
-4.55595e-05
-0.000134602
-5.45694e-05
-0.000135739
-6.3746e-05
-0.000135349
-7.29406e-05
-0.000133212
-8.19746e-05
-0.000129108
-9.06403e-05
-0.000122814
-9.87072e-05
-0.000114116
-0.000105936
-0.000102817
-0.000112106
-8.878e-05
-0.00011707
-7.19899e-05
-0.000120862
-5.26944e-05
-0.00012391
-3.16871e-05
-0.000127376
-1.08568e-05
-0.000133139
6.24309e-06
-0.000141819
1.6012e-05
-0.000148903
1.34981e-05
-0.000155885
1.30944e-05
-0.000162532
1.19956e-05
-0.000168706
1.05112e-05
-0.000174314
8.80246e-06
-0.000179295
6.97729e-06
-0.000183616
5.11282e-06
-0.000187266
3.26631e-06
-0.000190258
1.48306e-06
-0.000192618
-1.99968e-07
-0.000194375
-1.76537e-06
-0.000195576
-3.18867e-06
-0.000196273
-4.45897e-06
-0.00019652
-5.57441e-06
-0.00019637
-6.53394e-06
-0.00019588
-7.33897e-06
-0.000195105
-7.99581e-06
-0.000194101
-8.51748e-06
-0.000192922
-8.91573e-06
-9.17264e-06
-0.00019162
-6.17069e-06
-0.000106296
-1.28688e-05
-0.00011276
-2.00398e-05
-0.000117138
-2.76616e-05
-0.00012102
-3.56914e-05
-0.000124129
-4.40675e-05
-0.000126226
-5.27059e-05
-0.0001271
-6.14987e-05
-0.000126556
-7.03113e-05
-0.000124399
-7.89813e-05
-0.000120438
-8.73198e-05
-0.000114476
-9.51168e-05
-0.000106319
-0.000102153
-9.57811e-05
-0.000108223
-8.27103e-05
-0.000113179
-6.7033e-05
-0.000117021
-4.88526e-05
-0.000120059
-2.86494e-05
-0.000123232
-7.68462e-06
-0.000128393
1.1404e-05
-0.000137268
2.48865e-05
-0.000145471
2.17013e-05
-0.000154079
2.17027e-05
-0.000162655
2.05713e-05
-0.000170963
1.88194e-05
-0.000178838
1.66766e-05
-0.000186148
1.42879e-05
-0.000192796
1.17608e-05
-0.000198709
9.1793e-06
-0.000203837
6.61088e-06
-0.000208148
4.11089e-06
-0.00021164
1.72657e-06
-0.000214328
-5.00496e-07
-0.000216243
-2.54403e-06
-0.000217438
-4.37898e-06
-0.000217978
-5.99428e-06
-0.000217926
-7.39012e-06
-0.000217355
-8.56736e-06
-0.00021634
-9.5324e-06
-0.000214965
-1.02911e-05
-1.08168e-05
-0.00021332
-6.03693e-06
-0.00010026
-1.25308e-05
-0.000106266
-1.94432e-05
-0.000110225
-2.67525e-05
-0.00011371
-3.44171e-05
-0.000116465
-4.2378e-05
-0.000118265
-5.0556e-05
-0.000118922
-5.88496e-05
-0.000118262
-6.71324e-05
-0.000116116
-7.52529e-05
-0.000112317
-8.30343e-05
-0.000106694
-9.02807e-05
-9.90722e-05
-9.67874e-05
-8.92744e-05
-0.000102363
-7.71343e-05
-0.000106871
-6.25255e-05
-0.000110298
-4.54255e-05
-0.000112897
-2.60511e-05
-0.000115449
-5.13257e-06
-0.000119651
1.56061e-05
-0.000127909
3.31439e-05
-0.000136747
3.05389e-05
-0.000146921
3.18768e-05
-0.00015767
3.13199e-05
-0.000168559
2.9709e-05
-0.000179316
2.7433e-05
-0.000189725
2.46973e-05
-0.000199608
2.16432e-05
-0.000208812
1.83838e-05
-0.000217215
1.50142e-05
-0.000224719
1.16148e-05
-0.000231247
8.25426e-06
-0.000236739
4.99209e-06
-0.000241167
1.88328e-06
-0.000244522
-1.02317e-06
-0.000246822
-3.69451e-06
-0.00024812
-6.09256e-06
-0.000248482
-8.20474e-06
-0.000247995
-1.00202e-05
-0.000246771
-1.15149e-05
-1.26309e-05
-0.000244956
-5.95037e-06
-9.43092e-05
-1.22674e-05
-9.99489e-05
-1.89343e-05
-0.000103558
-2.59315e-05
-0.000106713
-3.32172e-05
-0.000109179
-4.07313e-05
-0.000110751
-4.83948e-05
-0.000111258
-5.61073e-05
-0.000110549
-6.37442e-05
-0.000108479
-7.11554e-05
-0.000104906
-7.81652e-05
-9.96845e-05
-8.45756e-05
-9.26618e-05
-9.01766e-05