/*--------------------------------*- C++ -*----------------------------------*\
| =========                 |                                                 |
| \\      /  F ield         | OpenFOAM: The Open Source CFD Toolbox           |
|  \\    /   O peration     | Version:  2312                                  |
|   \\  /    A nd           | Website:  www.openfoam.com                      |
|    \\/     M anipulation  |                                                 |
\*---------------------------------------------------------------------------*/
FoamFile
{
    version     2.0;
    format      ascii;
    arch        "LSB;label=32;scalar=64";
    class       volVectorField;
    location    "13117.4";
    object      U;
}
// * * * * * * * * * * * * * * * * * * * * * * * * * * * * * * * * * * * * * //

dimensions      [0 1 -1 0 0 0 0];

internalField   nonuniform List<vector> 
3780
(
(0.00167627 -0.0247734 8.1969e-19)
(0.00300902 -0.0216973 5.04269e-19)
(0.00473649 -0.0184844 1.24044e-19)
(0.00649423 -0.0154638 5.69545e-20)
(0.00807081 -0.0126116 1.65566e-19)
(0.00936855 -0.00990673 1.1497e-19)
(0.0103435 -0.00734603 -2.42731e-20)
(0.0109579 -0.00494988 -2.48499e-19)
(0.0111751 -0.00277 -4.14916e-19)
(0.0109499 -0.000895833 -6.31848e-19)
(0.0101819 0.000570919 -3.8757e-19)
(0.00878802 0.0016114 -6.31959e-20)
(0.00679052 0.0023352 1.33749e-19)
(0.0043163 0.00281668 2.67579e-19)
(0.00148236 0.0031017 3.57316e-19)
(-0.0015977 0.00321688 6.71452e-19)
(-0.00470645 0.00320425 8.04337e-19)
(-0.00780319 0.00310817 6.78062e-19)
(-0.0107999 0.00296352 8.20039e-19)
(-0.0135743 0.00279466 8.29276e-19)
(-0.0158195 0.00261749 8.37409e-19)
(-0.0174794 0.0024652 8.65002e-19)
(-0.0189232 0.0023181 5.60601e-19)
(-0.0201731 0.00216882 2.27944e-19)
(-0.021243 0.0020002 1.6331e-19)
(-0.0221403 0.00178761 3.07549e-19)
(-0.0228637 0.00149781 3.86891e-19)
(-0.0233992 0.0010895 3.69252e-19)
(-0.0237311 0.000510885 4.21491e-19)
(-0.0238731 -0.000291214 4.34221e-19)
(-0.0238775 -0.00132551 4.57007e-19)
(-0.0237818 -0.00255453 3.99172e-19)
(-0.0235755 -0.00397796 2.72251e-19)
(-0.0232491 -0.00559325 1.5532e-19)
(-0.0227976 -0.00739509 2.54992e-19)
(-0.0222185 -0.00937359 2.70574e-19)
(-0.0215061 -0.0114923 3.46171e-19)
(-0.0206885 -0.0137195 3.56658e-19)
(-0.0197977 -0.0160347 5.41082e-19)
(-0.0186779 -0.018556 7.60479e-19)
(0.00132485 -0.0266137 9.56662e-19)
(0.00264233 -0.0239169 1.02317e-18)
(0.00400368 -0.0208914 7.3869e-19)
(0.00533322 -0.0178543 4.96558e-19)
(0.0065805 -0.0147745 3.79877e-19)
(0.00769916 -0.0116394 4.68414e-19)
(0.00864805 -0.00846129 5.0382e-19)
(0.00937789 -0.00528039 2.28626e-19)
(0.009823 -0.00217844 -2.31015e-19)
(0.00989413 0.000708486 -6.25666e-19)
(0.00950815 0.00321391 -4.94581e-19)
(0.00857315 0.0052644 -1.19369e-19)
(0.00707078 0.00684846 2.42488e-20)
(0.00505272 0.00796753 -1.04693e-22)
(0.00257547 0.00862166 4.80642e-19)
(-0.000238308 0.00882477 8.79362e-19)
(-0.00318193 0.0086797 9.83796e-19)
(-0.00616075 0.00830053 8.74273e-19)
(-0.00904672 0.00777939 8.04467e-19)
(-0.0116874 0.00718246 7.15654e-19)
(-0.0137765 0.00658208 5.76508e-19)
(-0.0152723 0.00607227 8.94092e-19)
(-0.0165258 0.00556963 8.76493e-19)
(-0.0175607 0.00504855 5.72055e-19)
(-0.0183973 0.00447046 7.32737e-19)
(-0.0190559 0.00379324 4.93083e-19)
(-0.0195582 0.00297261 8.4649e-20)
(-0.0199296 0.00196742 1.25325e-19)
(-0.0202026 0.000740715 7.2053e-20)
(-0.0204066 -0.000734724 1.76891e-19)
(-0.0205904 -0.00244175 2.10141e-19)
(-0.0207525 -0.0043497 2.36751e-19)
(-0.020903 -0.00644219 2.75342e-19)
(-0.0210523 -0.0086985 2.87622e-19)
(-0.0212048 -0.0110866 3.77271e-19)
(-0.0213562 -0.01355 3.78519e-19)
(-0.0214729 -0.0159827 3.28575e-19)
(-0.0215209 -0.0182774 3.7464e-19)
(-0.0214237 -0.0202923 3.85475e-19)
(-0.0211458 -0.0218903 6.02378e-19)
(0.00111154 -0.0345433 9.74673e-19)
(0.00235115 -0.0312482 9.38467e-19)
(0.00369659 -0.0275605 5.80924e-19)
(0.00505937 -0.0238224 4.70658e-19)
(0.00636302 -0.0199819 2.47583e-19)
(0.00755896 -0.0160229 1.73062e-19)
(0.00862056 -0.0119551 3.37445e-19)
(0.00951796 -0.00781207 4.5349e-19)
(0.0102058 -0.00366108 2.76652e-20)
(0.010614 0.000383419 -4.64637e-19)
(0.0106654 0.00414994 -4.30484e-19)
(0.0102565 0.00746588 -4.66838e-20)
(0.00931817 0.0101798 -9.54767e-20)
(0.00783055 0.0121872 1.78946e-19)
(0.0058207 0.0134315 6.93093e-19)
(0.00330379 0.0139149 9.11985e-19)
(0.000511749 0.0137348 1.03286e-18)
(-0.00239354 0.0130939 1.18823e-18)
(-0.00524005 0.0121582 1.09385e-18)
(-0.00783502 0.0110523 9.67964e-19)
(-0.00986178 0.00993681 5.40125e-19)
(-0.0113046 0.00897274 4.27324e-19)
(-0.0125035 0.00799779 6.11489e-19)
(-0.0134959 0.00697478 6.00948e-19)
(-0.0143213 0.00585824 5.19216e-19)
(-0.0150214 0.00460503 2.38343e-19)
(-0.0156387 0.00318009 5.85029e-20)
(-0.0162124 0.00156269 9.63864e-20)
(-0.0167696 -0.000254457 -7.42009e-21)
(-0.0173476 -0.00226007 -1.87061e-19)
(-0.0179731 -0.00443816 1.86682e-19)
(-0.0186585 -0.00677699 4.79007e-19)
(-0.0194156 -0.00925831 1.7671e-19)
(-0.0202453 -0.0118523 1.02369e-19)
(-0.0211337 -0.014511 9.16328e-20)
(-0.0220383 -0.0171547 1.28807e-19)
(-0.0228839 -0.0196748 3.21292e-19)
(-0.0235904 -0.0219669 3.48146e-19)
(-0.0240474 -0.0238911 4.11602e-19)
(-0.0241698 -0.0253384 3.00291e-19)
(0.00113603 -0.0412308 1.08163e-18)
(0.0024134 -0.037425 1.06525e-18)
(0.00379968 -0.0331426 8.925e-19)
(0.00520386 -0.0288089 4.42323e-19)
(0.00657091 -0.0243525 1.78067e-19)
(0.00786461 -0.0197443 -1.41579e-19)
(0.00906902 -0.0149856 -1.27853e-19)
(0.0101663 -0.0101027 -2.61258e-19)
(0.0111267 -0.00515283 1.92455e-19)
(0.0118996 -0.000239426 5.02211e-19)
(0.0124107 0.00446209 -3.70424e-19)
(0.0125688 0.00876569 -1.34978e-19)
(0.0122648 0.0124665 4.2029e-19)
(0.0114088 0.0153671 8.15303e-19)
(0.00995287 0.0173193 1.04533e-18)
(0.00790226 0.0182503 9.85223e-19)
(0.0052905 0.0181886 6.73516e-19)
(0.0023962 0.0173206 9.08365e-19)
(-0.000530394 0.0159281 1.16445e-18)
(-0.00323836 0.014229 9.87845e-19)
(-0.00534271 0.0125353 8.25006e-19)
(-0.00684869 0.0110838 6.31667e-19)
(-0.00810853 0.00963536 4.97774e-19)
(-0.00917618 0.0081541 4.78905e-19)
(-0.0101079 0.00659762 5.8094e-19)
(-0.0109594 0.00492857 2.32356e-19)
(-0.0117813 0.00312136 5.31843e-20)
(-0.0126139 0.00116481 8.76125e-20)
(-0.0134814 -0.000941522 -6.5033e-20)
(-0.0144241 -0.00318826 -1.47946e-19)
(-0.0154529 -0.00556886 -1.14122e-19)
(-0.0165815 -0.00807312 -2.11051e-19)
(-0.0178153 -0.0106845 -1.9122e-19)
(-0.019146 -0.0133768 3.41744e-20)
(-0.0205456 -0.0161071 1.08419e-20)
(-0.0219567 -0.0188079 9.35688e-20)
(-0.0232909 -0.0213846 1.43963e-19)
(-0.0244346 -0.0237156 1.09622e-19)
(-0.0252317 -0.0256245 2.42968e-20)
(-0.0255597 -0.0269688 4.05767e-20)
(0.00112626 -0.0482294 1.20985e-18)
(0.00244962 -0.0440438 1.10759e-18)
(0.00390181 -0.0392604 1.36427e-18)
(0.00538856 -0.0344111 1.36624e-18)
(0.00686483 -0.0294157 1.02541e-18)
(0.0082984 -0.0242395 3.43135e-19)
(0.00967841 -0.0188804 6.37854e-20)
(0.0109943 -0.0133604 -3.92781e-20)
(0.0122274 -0.00772727 -1.11989e-19)
(0.0133435 -0.0020665 -1.08266e-19)
(0.0142701 0.00347952 -7.05056e-20)
(0.0149319 0.00869409 1.79788e-19)
(0.0152125 0.0133578 6.36822e-19)
(0.0149842 0.0172182 1.0874e-18)
(0.0141302 0.0200354 1.10724e-18)
(0.0125811 0.0216361 5.61408e-19)
(0.0103432 0.0219557 3.50264e-19)
(0.00749608 0.0210587 3.05221e-19)
(0.0043774 0.0192349 7.54787e-19)
(0.00140034 0.0168967 6.53352e-19)
(-0.000928054 0.0145978 5.17375e-19)
(-0.00261801 0.012651 6.294e-19)
(-0.00404578 0.0107512 6.38833e-19)
(-0.00527605 0.00886924 5.21732e-19)
(-0.00637742 0.00696484 4.08176e-19)
(-0.00741458 0.00500112 3.164e-19)
(-0.00844245 0.00295198 2.41747e-19)
(-0.00950258 0.000804704 2.42103e-19)
(-0.0106211 -0.00144103 3.9975e-20)
(-0.0118294 -0.00378181 -1.50529e-19)
(-0.0131421 -0.00621792 -1.80557e-19)
(-0.0145738 -0.00874787 -6.67473e-20)
(-0.0161303 -0.0113672 6.65206e-20)
(-0.0178046 -0.0140643 1.39053e-19)
(-0.0195716 -0.0168141 2.67649e-19)
(-0.0213783 -0.0195671 2.38342e-19)
(-0.0231311 -0.0222337 1.41743e-19)
(-0.0246908 -0.0246752 1.78737e-19)
(-0.0258485 -0.0266685 1.81876e-19)
(-0.0264359 -0.0280282 1.52582e-19)
(0.00110799 -0.0553519 1.31086e-18)
(0.00247024 -0.0508683 1.08503e-18)
(0.00396969 -0.0456394 1.04603e-18)
(0.0055135 -0.0403274 1.29878e-18)
(0.0070674 -0.0348502 1.60303e-18)
(0.00860287 -0.0291703 1.55388e-18)
(0.0101127 -0.023284 8.34949e-19)
(0.0115916 -0.0172106 2.00113e-19)
(0.0130285 -0.0109909 -1.88332e-19)
(0.0144021 -0.0046944 -1.21044e-19)
(0.0156602 0.00156685 8.76449e-20)
(0.0167275 0.0075605 2.2285e-19)
(0.0174973 0.0130803 5.05328e-19)
(0.0178344 0.0178583 4.60311e-19)
(0.0175819 0.0215943 -7.57653e-20)
(0.0165972 0.0240098 -3.1779e-19)
(0.0148028 0.024917 -9.63413e-20)
(0.0122293 0.0242791 1.47549e-19)
(0.00903232 0.0222391 4.42381e-19)
(0.00568342 0.0192502 4.16262e-19)
(0.00304514 0.0163365 2.20823e-19)
(0.0011009 0.0138924 1.78979e-19)
(-0.000547877 0.0115615 3.25667e-19)
(-0.00196748 0.00932727 4.71396e-19)
(-0.00323363 0.00715101 3.5696e-19)
(-0.00441926 0.00499145 3.39892e-19)
(-0.00558747 0.00281452 3.1435e-19)
(-0.00678704 0.000598392 1.71342e-19)
(-0.00805028 -0.00166421 6.25603e-20)
(-0.00940529 -0.00397765 7.02499e-20)
(-0.0108731 -0.00635226 9.84929e-20)
(-0.0124733 -0.00880089 1.60415e-19)
(-0.0142183 -0.0113358 1.32196e-19)
(-0.0161097 -0.0139638 2.90195e-19)
(-0.0181321 -0.0166796 2.97022e-19)
(-0.0202421 -0.0194518 2.41312e-19)
(-0.0223488 -0.0222026 1.90042e-19)
(-0.0242979 -0.0247891 2.94415e-19)
(-0.0258166 -0.0269297 4.98896e-19)
(-0.0266712 -0.0283727 2.55033e-19)
(0.00106329 -0.0624907 1.35623e-18)
(0.00243037 -0.0577763 9.99359e-19)
(0.00393318 -0.0521608 9.23066e-19)
(0.00548607 -0.0464404 7.95825e-19)
(0.00706419 -0.0405347 1.20287e-18)
(0.00864177 -0.0344058 1.12146e-18)
(0.0102139 -0.0280515 9.66722e-19)
(0.0117788 -0.0214918 8.83952e-19)
(0.0133305 -0.0147655 6.24879e-19)
(0.0148568 -0.00793433 1.55343e-19)
(0.0163304 -0.00109556 -2.27758e-19)
(0.0176769 0.00559008 1.68665e-19)
(0.0188069 0.0118732 -1.15317e-19)
(0.0195923 0.0174917 -5.97124e-19)
(0.0198669 0.0221206 -6.44381e-19)
(0.0194437 0.0254059 -1.88887e-19)
(0.0181642 0.0270343 -2.48741e-19)
(0.0159668 0.0268295 -4.62134e-19)
(0.0129483 0.0248452 2.05349e-20)
(0.00940182 0.0214031 -1.37482e-19)
(0.00642881 0.0178595 1.20297e-19)
(0.00422048 0.0149134 1.88283e-19)
(0.0023464 0.0121579 3.24823e-19)
(0.00074649 0.00959433 3.37033e-19)
(-0.000656795 0.00718626 2.96502e-19)
(-0.00194149 0.00488795 1.24302e-19)
(-0.00317812 0.00265609 1.42433e-19)
(-0.00442536 0.000455411 1.17625e-19)
(-0.0057247 -0.00173373 1.14349e-19)
(-0.00710857 -0.00392727 1.09229e-19)
(-0.00860697 -0.00614998 7.8176e-21)
(-0.0102495 -0.00843178 -7.03918e-20)
(-0.0120606 -0.0108037 3.38645e-20)
(-0.0140559 -0.0132936 2.23381e-19)
(-0.0162366 -0.0159186 2.47169e-19)
(-0.0185759 -0.0186717 1.28364e-19)
(-0.0209973 -0.021499 2.2121e-19)
(-0.0233429 -0.024265 2.77808e-19)
(-0.0252666 -0.0266194 3.6201e-19)
(-0.0264444 -0.0282194 2.48359e-19)
(0.000995877 -0.0694578 1.54843e-18)
(0.00232849 -0.0645427 1.41361e-18)
(0.0037866 -0.0585807 1.02141e-18)
(0.00529624 -0.0524889 6.04135e-19)
(0.00683983 -0.0461886 2.96882e-19)
(0.00839344 -0.0396449 1.19319e-18)
(0.00995336 -0.0328599 1.2843e-18)
(0.0115199 -0.0258578 1.02949e-18)
(0.013091 -0.0186788 4.08078e-19)
(0.0146607 -0.0113799 7.74784e-19)
(0.0162144 -0.00404321 8.87207e-19)
(0.0177096 0.00320892 2.35791e-19)
(0.0190579 0.0101273 -3.66434e-19)
(0.0201523 0.0164601 -3.10855e-19)
(0.0208349 0.0218762 1.13499e-19)
(0.0209048 0.0259766 -5.67646e-20)
(0.0201512 0.0283467 -3.317e-19)
(0.0184231 0.028664 -5.09052e-19)
(0.015724 0.02685 -9.01051e-20)
(0.0122914 0.0232054 -3.17485e-19)
(0.00916058 0.0191614 -2.80878e-20)
(0.00673042 0.0157096 1.05152e-19)
(0.00466757 0.0125403 1.9468e-19)
(0.00292172 0.00966609 2.29778e-19)
(0.00141869 0.00705443 2.57884e-19)
(8.02932e-05 0.00465494 1.95697e-19)
(-0.00116596 0.00241632 1.56254e-19)
(-0.00238543 0.000289817 1.18305e-19)
(-0.00362851 -0.00175992 8.92808e-20)
(-0.00493639 -0.00376306 6.28681e-20)
(-0.00634995 -0.00576014 -1.88707e-21)
(-0.00791174 -0.00779774 -9.46514e-20)
(-0.00966243 -0.00992556 3.28151e-20)
(-0.0116382 -0.0121936 1.31426e-19)
(-0.0138647 -0.0146466 8.17446e-20)
(-0.0163432 -0.0173113 6.7063e-20)
(-0.0190264 -0.020172 6.49992e-20)
(-0.0217667 -0.0231153 2.28717e-19)
(-0.0241438 -0.0257258 1.42905e-19)
(-0.0257182 -0.0275442 2.07405e-19)
(0.000912145 -0.0760925 1.5487e-18)
(0.00217336 -0.0709758 1.76699e-18)
(0.00354445 -0.0646873 1.3563e-18)
(0.00496558 -0.0582404 1.28733e-18)
(0.00642385 -0.0515574 7.07336e-19)
(0.007896 -0.044609 1.44308e-19)
(0.00937835 -0.0374064 6.65203e-19)
(0.010872 -0.0299825 6.05159e-19)
(0.0123774 -0.0223843 4.97131e-19)
(0.013893 -0.0146709 2.47016e-19)
(0.0154143 -0.00691631 1.19486e-19)
(0.0169282 0.000778621 -1.54109e-19)
(0.0183563 0.00820491 -2.21188e-19)
(0.0196148 0.015111 1.04873e-19)
(0.0205661 0.0211643 3.4337e-20)
(0.0210187 0.0259408 -5.61173e-19)
(0.0207421 0.0289556 -5.84224e-19)
(0.0195219 0.0297644 -3.54407e-19)
(0.0172669 0.0281577 -5.36535e-19)
(0.0141352 0.0243885 -2.381e-19)
(0.0111236 0.0200552 -2.71592e-19)
(0.00865676 0.01624 -1.1822e-19)
(0.00647619 0.0126774 -1.32215e-19)
(0.00463686 0.00952704 -2.44028e-20)
(0.00307495 0.00674645 -7.51577e-21)
(0.00172032 0.00427696 -2.10853e-21)
(0.000503453 0.00205848 2.95988e-21)
(-0.000640838 3.19864e-05 1.5861e-20)
(-0.00176881 -0.00184929 8.39282e-21)
(-0.00292556 -0.00362602 -3.28004e-20)
(-0.00416238 -0.00535191 -6.92388e-20)
(-0.00553345 -0.00708505 -6.55312e-20)
(-0.00709648 -0.00888982 -1.17872e-20)
(-0.00891256 -0.0108381 7.33254e-20)
(-0.0110413 -0.013007 1.15649e-19)
(-0.0135279 -0.0154686 1.87381e-19)
(-0.0163747 -0.018264 1.5605e-19)
(-0.019469 -0.0213264 1.61439e-20)
(-0.0223404 -0.0242042 -1.62178e-21)
(-0.0243973 -0.0262717 1.18053e-19)
(0.000824464 -0.0822581 1.49694e-18)
(0.00199232 -0.0769242 1.37433e-18)
(0.00324819 -0.0703178 1.04844e-18)
(0.00454698 -0.0635171 1.4081e-18)
(0.00587939 -0.056444 1.86332e-18)
(0.00722281 -0.0490786 1.11235e-18)
(0.00857298 -0.0414446 9.40233e-19)
(0.00993079 -0.0335882 5.76406e-19)
(0.0112978 -0.0255687 3.18798e-19)
(0.0126766 -0.0174541 -2.62971e-19)
(0.0140708 -0.00932298 -1.80324e-19)
(0.0154809 -0.00127687 1.07363e-19)
(0.0168733 0.00653184 -2.0303e-19)
(0.0181649 0.0138371 -7.39621e-19)
(0.0192517 0.0203129 -9.8958e-19)
(0.0199695 0.0255291 -7.51121e-19)
(0.0200962 0.0289646 -1.17712e-18)
(0.0193852 0.0300981 -1.1344e-18)
(0.0176674 0.0286279 -6.93675e-19)
(0.0150077 0.0247717 -2.36294e-19)
(0.012283 0.020234 -2.22974e-19)
(0.00994307 0.0161816 -1.76492e-19)
(0.00781495 0.0124141 -3.98343e-20)
(0.00596186 0.00907378 -2.51811e-20)
(0.00437866 0.00616849 -1.5629e-19)
(0.00302545 0.0036554 -1.56944e-19)
(0.00184973 0.00147477 -1.18631e-19)
(0.000801263 -0.000434402 -1.21182e-19)
(-0.000179585 -0.00212857 -1.12697e-19)
(-0.00114326 -0.00366291 -4.18739e-20)
(-0.00214624 -0.00509303 -5.13831e-20)
(-0.00324827 -0.00647816 -1.79253e-20)
(-0.00451679 -0.00788816 5.38955e-20)
(-0.00603106 -0.00940957 1.11435e-19)
(-0.00788384 -0.0111499 9.50805e-20)
(-0.0101753 -0.0132348 9.83602e-20)
(-0.0129863 -0.0157842 1.19224e-19)
(-0.0162808 -0.0188066 8.02135e-20)
(-0.0196199 -0.0218904 3.78817e-20)
(-0.0221659 -0.0240976 1.06165e-19)
(0.000729387 -0.0877587 1.49485e-18)
(0.00178179 -0.0821861 1.48285e-18)
(0.00290609 -0.0752641 1.3639e-18)
(0.00406829 -0.068106 1.4713e-18)
(0.00525915 -0.0606337 1.03664e-18)
(0.0064556 -0.0528426 1.17748e-18)
(0.00765149 -0.044776 7.42531e-19)
(0.00884506 -0.036501 1.31458e-18)
(0.0100347 -0.0280972 1.01877e-18)
(0.0112194 -0.0196519 2.09821e-19)
(0.0124 -0.011255 -4.06052e-19)
(0.0135815 -0.00299709 -3.99473e-19)
(0.014768 0.00503358 -6.37128e-19)
(0.0159378 0.0125887 -7.83261e-19)
(0.0170372 0.0193096 -7.4961e-19)
(0.0179375 0.0247553 -6.12286e-19)
(0.0184298 0.0283956 -1.36188e-19)
(0.0182432 0.0296885 -3.18027e-19)
(0.017133 0.0283111 -2.62799e-19)
(0.0150558 0.024495 -2.12709e-19)
(0.0127375 0.0199881 -2.47967e-19)
(0.0106451 0.0159267 -2.1129e-19)
(0.00867447 0.0121295 -2.28309e-19)
(0.0069193 0.00874868 -2.92513e-19)
(0.00540993 0.00581095 -2.89316e-19)
(0.00413414 0.00328302 -1.73131e-19)
(0.00305822 0.00110869 -1.731e-19)
(0.00213082 -0.000773219 -1.76664e-19)
(0.00130034 -0.00237528 -1.39351e-19)
(0.000535122 -0.00373207 -7.4811e-20)
(-0.000217446 -0.00489805 -7.80563e-20)
(-0.00101912 -0.00593934 -9.30865e-20)
(-0.00194117 -0.00693567 -5.95082e-20)
(-0.0030717 -0.00798761 1.15258e-20)
(-0.00452334 -0.00922543 3.4408e-20)
(-0.00643492 -0.0108114 9.68517e-20)
(-0.00895037 -0.0129165 9.99641e-20)
(-0.0121053 -0.0155939 4.94219e-20)
(-0.0156354 -0.0185802 5.24515e-20)
(-0.0183944 -0.0204019 9.79932e-20)
(0.00062353 -0.0924736 1.4573e-18)
(0.00151951 -0.0866089 1.55554e-18)
(0.0024762 -0.0792912 1.15579e-18)
(0.00347108 -0.0716713 1.58344e-18)
(0.00448443 -0.0636726 1.04002e-18)
(0.00549005 -0.0553115 1.82992e-18)
(0.00648281 -0.0466547 1.30903e-18)
(0.00746511 -0.0377894 1.19716e-18)
(0.00844271 -0.0288121 1.1322e-18)
(0.00942601 -0.0198239 6.95567e-19)
(0.010429 -0.0109309 3.68306e-19)
(0.0114617 -0.00227339 2.84393e-19)
(0.0125037 0.00588057 6.05896e-20)
(0.0135669 0.0132563 -2.27205e-19)
(0.0146642 0.0195922 -3.51825e-19)
(0.0157075 0.0245184 -2.59571e-19)
(0.0165095 0.0275609 -3.76389e-19)
(0.0167993 0.0282473 -6.0761e-19)
(0.0163023 0.0263562 -4.71809e-19)
(0.0148971 0.022217 -3.67834e-19)
(0.0130171 0.0176037 -2.0677e-19)
(0.0111256 0.013483 -3.19182e-19)
(0.00926056 0.00967252 -3.6588e-19)
(0.00755076 0.00630138 -2.58718e-19)
(0.00605187 0.00339479 -1.22606e-19)
(0.00478372 0.000940722 -3.45841e-20)
(0.0037625 -0.00106804 -2.01902e-19)
(0.00299027 -0.00264172 -4.64214e-19)
(0.00240027 -0.00386418 -5.15838e-19)
(0.00191098 -0.0048089 -3.83114e-19)
(0.00145636 -0.00554445 -2.28022e-19)
(0.00098051 -0.00614046 -2.05583e-19)
(0.000421164 -0.0066753 -1.40219e-19)
(-0.000300464 -0.00724849 -3.61247e-20)
(-0.00128056 -0.00798541 -5.30259e-21)
(-0.00263024 -0.00902525 -4.08799e-20)
(-0.00446766 -0.0104847 9.07799e-20)
(-0.0068966 -0.0123731 1.0842e-19)
(-0.0100221 -0.0143974 1.50037e-19)
(-0.0128158 -0.014882 1.59839e-19)
(0.000648864 -0.0968806 1.59339e-18)
(0.00153024 -0.0908189 1.74005e-18)
(0.00237471 -0.0832045 1.35262e-18)
(0.0031911 -0.0752794 1.29216e-18)
(0.00395435 -0.0669505 2.10531e-18)
(0.00465203 -0.0582557 1.55938e-18)
(0.00528921 -0.049291 1.69559e-18)
(0.0058777 -0.0401679 1.10213e-18)
(0.00643426 -0.0310111 1.0068e-18)
(0.00698756 -0.021951 6.88933e-19)
(0.00757829 -0.0131069 6.97467e-19)
(0.00824895 -0.00459055 6.01425e-19)
(0.00908588 0.00346732 6.43148e-19)
(0.00999536 0.0106272 -1.67033e-20)
(0.0109747 0.0167627 -4.11506e-19)
(0.0119981 0.021627 -4.4695e-19)
(0.0129988 0.0248653 -1.16743e-18)
(0.0138387 0.026108 -8.23578e-19)
(0.0143033 0.0251595 -5.15202e-19)
(0.014155 0.0222224 7.36211e-20)
(0.0135059 0.0186904 2.92097e-20)
(0.0126511 0.015131 -6.24748e-19)
(0.0116259 0.0116176 -3.91629e-19)
(0.0104911 0.0083201 -7.18276e-20)
(0.00931866 0.00532627 -7.79055e-20)
(0.00816476 0.00267019 -1.40299e-19)
(0.0070509 0.00035889 -3.52349e-19)
(0.00597402 -0.00158285 -5.21183e-19)
(0.00497949 -0.00309063 -5.59756e-19)
(0.00407176 -0.00417818 -5.53271e-19)
(0.00323717 -0.00494854 -5.12179e-19)
(0.0024553 -0.0055062 -3.86113e-19)
(0.00172103 -0.00594286 -2.13717e-19)
(0.00101557 -0.00638872 -7.69521e-20)
(0.000324672 -0.00697297 -5.54575e-21)
(-0.000408833 -0.00772246 3.40585e-20)
(-0.00137694 -0.00848157 1.01911e-19)
(-0.00296332 -0.00895894 1.11984e-19)
(-0.00543843 -0.00866123 1.89736e-19)
(-0.00796143 -0.00724672 2.15715e-19)
(0.000437149 -0.100212 1.63482e-18)
(0.0010288 -0.0944673 1.99442e-18)
(0.00164156 -0.0870716 2.61968e-18)
(0.00225811 -0.0793702 2.07299e-18)
(0.00284904 -0.0712658 2.29185e-18)
(0.00340283 -0.0627816 1.34361e-18)
(0.00391878 -0.0540279 1.00642e-18)
(0.00439936 -0.0451052 8.40048e-19)
(0.00484668 -0.0361384 3.20899e-19)
(0.00527241 -0.0272827 7.27594e-20)
(0.00570297 -0.0186732 3.7869e-19)
(0.00617543 -0.0104208 2.3141e-19)
(0.00674633 -0.00257165 -1.31085e-19)
(0.00747161 0.00487683 -2.5925e-19)
(0.00826768 0.0114476 -2.67865e-19)
(0.00918465 0.0168951 -5.48046e-19)
(0.0102113 0.0209412 -7.59815e-19)
(0.0112783 0.0232886 -4.33271e-19)
(0.0122445 0.0237381 -2.8847e-19)
(0.0128971 0.0223699 -1.0925e-20)
(0.0130653 0.0201391 -4.37991e-19)
(0.0129448 0.0175965 -6.18965e-19)
(0.0125777 0.0148469 -3.85343e-19)
(0.0120008 0.0120928 -4.67255e-19)
(0.0112562 0.00947395 -6.57864e-19)
(0.0103778 0.00707776 -4.85744e-19)
(0.00938701 0.00494664 -4.11192e-19)
(0.0082971 0.00308353 -3.80819e-19)
(0.00710986 0.00146776 -5.53058e-19)
(0.00582489 0.000129922 -6.80483e-19)
(0.00442969 -0.000854976 -7.27488e-19)
(0.002885 -0.00144932 -6.11525e-19)
(0.00111217 -0.00163793 -4.21742e-19)
(-0.000998025 -0.0014214 -2.44553e-19)
(-0.00346765 -0.000916894 -9.07208e-20)
(-0.0063316 -0.000414176 -1.75597e-20)
(-0.00940518 -0.000353379 -5.36282e-21)
(-0.0123704 -0.000934286 6.44102e-20)
(-0.0150805 -0.00177553 1.14733e-19)
(-0.017622 -0.00237198 1.26805e-19)
(0.000358582 -0.102733 1.60408e-18)
(0.000825077 -0.0972356 1.90176e-18)
(0.00130333 -0.0899652 2.27065e-18)
(0.00178278 -0.0823694 1.69111e-18)
(0.00223643 -0.0743687 1.7721e-18)
(0.00265622 -0.065997 1.94256e-18)
(0.00304269 -0.0573334 1.86171e-18)
(0.00339647 -0.0484722 1.49189e-18)
(0.00372199 -0.0395042 1.14059e-18)
(0.00402205 -0.0306516 8.40646e-19)
(0.00430161 -0.0220535 5.8455e-19)
(0.00457804 -0.01387 5.81737e-19)
(0.00489658 -0.00619883 4.09287e-19)
(0.00535566 0.00093724 3.64111e-19)
(0.00598684 0.00733919 1.70671e-19)
(0.00679585 0.0127888 -2.02018e-19)
(0.00779308 0.0170788 -1.14689e-19)
(0.00893619 0.0199707 -2.62818e-19)
(0.0101226 0.0212749 -3.05322e-19)
(0.0111836 0.0209834 -1.78608e-19)
(0.0118351 0.0196655 -1.87875e-19)
(0.0122158 0.0179078 -5.10123e-19)
(0.0123716 0.0158238 -8.47332e-19)
(0.0123256 0.0135989 -9.42158e-19)
(0.0121068 0.0113763 -8.66268e-19)
(0.0117464 0.00926059 -6.94477e-19)
(0.0112752 0.00732617 -7.10512e-19)
(0.0107195 0.00562448 -6.32351e-19)
(0.0100968 0.00418958 -6.57151e-19)
(0.00941664 0.00304652 -6.88296e-19)
(0.00868401 0.00222397 -7.15917e-19)
(0.00790123 0.0017567 -7.39938e-19)
(0.00707388 0.00167387 -6.03284e-19)
(0.00622308 0.001985 -4.21989e-19)
(0.00538082 0.00265986 -3.41614e-19)
(0.00456047 0.00359069 -3.01304e-19)
(0.00376262 0.00457133 -3.28812e-19)
(0.00298223 0.00535847 -2.63861e-19)
(0.00220946 0.00579076 -2.07441e-19)
(0.00145215 0.00580863 -1.82619e-19)
(0.000293903 -0.104858 1.62143e-18)
(0.000666497 -0.099617 1.8019e-18)
(0.00104397 -0.0925055 1.68997e-18)
(0.00142306 -0.0850561 1.27032e-18)
(0.00177758 -0.0771974 1.62965e-18)
(0.0020993 -0.0689614 2.29333e-18)
(0.00238798 -0.0604253 2.41874e-18)
(0.0026459 -0.0516886 1.65141e-18)
(0.00287965 -0.0428651 1.10153e-18)
(0.00309339 -0.0340793 1.23009e-18)
(0.0032899 -0.0254436 7.30305e-19)
(0.003475 -0.0172421 7.13992e-19)
(0.0036685 -0.00961136 4.81337e-19)
(0.00392565 -0.00263835 2.89328e-19)
(0.00434994 0.00365022 2.04599e-19)
(0.00496549 0.00901036 -8.37486e-20)
(0.00581684 0.0133267 -4.15322e-19)
(0.00689597 0.0164543 -2.19435e-19)
(0.00813415 0.0182599 1.36817e-19)
(0.00940319 0.0187169 -4.69877e-20)
(0.0103588 0.0181207 -6.64099e-19)
(0.0110776 0.017041 -1.10733e-18)
(0.0116136 0.015595 -1.27414e-18)
(0.0119741 0.0139357 -1.14388e-18)
(0.0121681 0.0121859 -8.10262e-19)
(0.01221 0.0104396 -9.27286e-19)
(0.0121186 0.00876602 -8.35212e-19)
(0.0119143 0.00721457 -6.4505e-19)
(0.0116178 0.0058193 -7.23092e-19)
(0.0112484 0.00460534 -8.31689e-19)
(0.010825 0.00359533 -7.73314e-19)
(0.0103668 0.00281381 -5.57758e-19)
(0.00989301 0.00228917 -5.74957e-19)
(0.00942451 0.00204864 -5.4307e-19)
(0.00898655 0.00210092 -5.26801e-19)
(0.00860553 0.0024172 -4.5315e-19)
(0.0083015 0.0029195 -4.12558e-19)
(0.00807795 0.00349704 -3.03006e-19)
(0.00791834 0.0040461 -3.14905e-19)
(0.00779309 0.0044902 -3.25265e-19)
(0.000245544 -0.10666 1.62766e-18)
(0.000548022 -0.101652 1.86112e-18)
(0.000846086 -0.0946963 1.97269e-18)
(0.00114418 -0.0873978 1.8273e-18)
(0.001418 -0.0796916 1.11135e-18)
(0.00166176 -0.0716055 1.10658e-18)
(0.00187612 -0.0632102 1.45894e-18)
(0.00206273 -0.0545981 1.50657e-18)
(0.00222418 -0.0458791 1.14823e-18)
(0.00236536 -0.0371816 1.12086e-18)
(0.0024968 -0.0286451 9.16132e-19)
(0.00262731 -0.0204139 6.16261e-19)
(0.00276319 -0.0127083 5.14071e-19)
(0.00292727 -0.00575338 3.01981e-19)
(0.00319508 0.000397789 3.04398e-20)
(0.00364258 0.005633 -4.26119e-19)
(0.0043201 0.00985325 -4.37274e-19)
(0.00526348 0.0130149 -2.30355e-19)
(0.00644479 0.0150607 -6.20358e-19)
(0.00777816 0.0159801 -5.49213e-19)
(0.00889947 0.0158903 -7.70371e-19)
(0.00982319 0.0153184 -1.25527e-18)
(0.0106162 0.0143867 -1.40282e-18)
(0.011277 0.0132179 -1.149e-18)
(0.0118023 0.0119136 -9.50825e-19)
(0.0121946 0.0105556 -1.01095e-18)
(0.0124623 0.00920868 -1.06966e-18)
(0.0126174 0.00792216 -8.32412e-19)
(0.0126729 0.00673276 -5.6144e-19)
(0.0126424 0.00566712 -6.56912e-19)
(0.0125394 0.00474455 -8.87906e-19)
(0.0123776 0.00397934 -7.9785e-19)
(0.0121724 0.00338274 -5.91139e-19)
(0.0119405 0.00296414 -4.84798e-19)
(0.0117013 0.00272973 -5.77116e-19)
(0.0114748 0.00267776 -6.18835e-19)
(0.0112795 0.00279182 -5.40593e-19)
(0.0111273 0.00303805 -5.80239e-19)
(0.0110192 0.00337066 -5.29421e-19)
(0.0109441 0.00373984 -4.81343e-19)
(0.000205874 -0.108211 1.46904e-18)
(0.00045047 -0.103408 1.76393e-18)
(0.000681319 -0.0966041 1.9338e-18)
(0.000909383 -0.0894587 2.15133e-18)
(0.00111186 -0.0819132 1.84508e-18)
(0.00128508 -0.0739927 1.04472e-18)
(0.00143125 -0.0657615 1.84303e-18)
(0.00155371 -0.0573038 2.33607e-18)
(0.00165627 -0.0487193 2.97548e-18)
(0.00174339 -0.0401255 2.2816e-18)
(0.00182165 -0.0316614 1.32067e-18)
(0.00190231 -0.023488 5.67918e-19)
(0.00199929 -0.0157734 3.49639e-19)
(0.00212935 -0.00870234 1.57571e-19)
(0.00232399 -0.00256436 -9.41726e-20)
(0.00265973 0.0026141 -1.54984e-19)
(0.00319554 0.00671955 -1.4472e-19)
(0.00399406 0.00979772 -6.01705e-19)
(0.00506765 0.0118851 -6.19687e-19)
(0.00636956 0.0130183 -3.50733e-19)
(0.00754959 0.0132289 -1.115e-18)
(0.00857155 0.0129897 -1.34691e-18)
(0.00951212 0.0124248 -9.5473e-19)
(0.0103631 0.0116303 -7.18461e-19)
(0.0111132 0.0106861 -1.09491e-18)
(0.0117567 0.00965834 -9.79022e-19)
(0.012294 0.00860135 -6.692e-19)
(0.0127297 0.00755851 -8.14645e-19)
(0.0130708 0.00656366 -7.23121e-19)
(0.0133259 0.00564259 -7.65168e-19)
(0.0135041 0.00481456 -1.01984e-18)
(0.0136149 0.00409355 -7.7868e-19)
(0.0136682 0.00348929 -7.14131e-19)
(0.0136746 0.00300807 -6.25701e-19)
(0.0136456 0.0026532 -4.75023e-19)
(0.013593 0.00242501 -5.22174e-19)
(0.0135287 0.00232029 -7.18363e-19)
(0.0134623 0.00233173 -7.09526e-19)
(0.013399 0.0024485 -6.00208e-19)
(0.0133346 0.00265794 -5.09894e-19)
(0.000171802 -0.109544 1.42977e-18)
(0.000365454 -0.104914 1.73182e-18)
(0.000536508 -0.0982504 1.6309e-18)
(0.000700596 -0.091252 2.47746e-18)
(0.000835963 -0.0838659 2.32482e-18)
(0.000940406 -0.0761152 2.7191e-18)
(0.00101716 -0.0680605 2.76821e-18)
(0.0010712 -0.0597793 2.58765e-18)
(0.00110873 -0.0513616 3.0551e-18)
(0.00113677 -0.0429116 2.10214e-18)
(0.00116293 -0.0345542 1.21654e-18)
(0.00119634 -0.0264416 9.15542e-19)
(0.0012507 -0.0187557 4.48121e-19)
(0.00134719 -0.0116904 3.64226e-19)
(0.00151396 -0.00540591 3.1385e-19)
(0.00179906 -0.00020833 1.56213e-19)
(0.00225916 0.00386323 -9.6226e-20)
(0.00294396 0.00683523 -4.12085e-19)
(0.00390578 0.00885144 -3.34593e-19)
(0.00513125 0.0100223 -4.89809e-19)
(0.00630177 0.01037 -7.94405e-19)
(0.00734756 0.0103175 -7.45435e-19)
(0.00835171 0.00998622 -6.44623e-19)
(0.0093023 0.00945192 -6.61678e-19)
(0.0101845 0.00877624 -5.86748e-19)
(0.0109881 0.00801111 -6.60311e-19)
(0.0117084 0.00720024 -7.42971e-19)
(0.0123447 0.00637984 -8.58275e-19)
(0.0128989 0.00557937 -9.06543e-19)
(0.0133744 0.0048223 -9.59849e-19)
(0.0137757 0.00412696 -1.03958e-18)
(0.0141077 0.00350712 -1.207e-18)
(0.0143758 0.00297244 -8.55146e-19)
(0.0145857 0.00252887 -3.62109e-19)
(0.0147434 0.00217911 -4.42821e-19)
(0.0148557 0.00192314 -5.54555e-19)
(0.0149291 0.00175885 -5.46088e-19)
(0.0149701 0.00168313 -5.69162e-19)
(0.014983 0.0016936 -5.50953e-19)
(0.0149663 0.00179189 -5.03128e-19)
(0.000141138 -0.110672 1.53263e-18)
(0.000287232 -0.106182 1.90453e-18)
(0.000403031 -0.0996426 2.01033e-18)
(0.00050653 -0.0927792 1.8695e-18)
(0.000576636 -0.0855426 2.00947e-18)
(0.000611871 -0.0779551 2.49248e-18)
(0.000615669 -0.0700756 1.95353e-18)
(0.000593704 -0.0619782 1.74412e-18)
(0.000553745 -0.0537462 1.68446e-18)
(0.000505453 -0.0454733 1.72835e-18)
(0.000459771 -0.0372683 1.58388e-18)
(0.000428393 -0.0292643 1.51796e-18)
(0.000424596 -0.0216292 1.37985e-18)
(0.00046732 -0.0145683 1.16922e-18)
(0.000589689 -0.00830055 1.01616e-18)
(0.000837745 -0.00299375 6.46356e-19)
(0.00126908 0.00115838 1.90283e-19)
(0.00189479 0.00408744 -1.05921e-19)
(0.00276627 0.00600561 -9.07787e-20)
(0.00390176 0.00711874 -1.80657e-19)
(0.00502083 0.00749288 -3.10629e-19)
(0.00603709 0.00751939 -3.53957e-19)
(0.00703702 0.00731443 -3.57815e-19)
(0.00800732 0.0069389 -3.70504e-19)
(0.00893287 0.00644037 -4.30821e-19)
(0.00980242 0.00585882 -5.67575e-19)
(0.010609 0.00522846 -7.18815e-19)
(0.0113491 0.00457834 -7.02448e-19)
(0.0120213 0.00393276 -6.32746e-19)
(0.0126259 0.00331182 -7.17484e-19)
(0.0131642 0.00273198 -5.41302e-19)
(0.013638 0.0022069 -4.50194e-19)
(0.0140492 0.00174772 -6.84156e-19)
(0.0144 0.00136241 -6.84213e-19)
(0.0146929 0.00105539 -6.36377e-19)
(0.014931 0.000828256 -6.76294e-19)
(0.0151173 0.00068024 -6.75225e-19)
(0.015255 0.000609113 -7.05978e-19)
(0.0153478 0.000614071 -6.17844e-19)
(0.0153952 0.00069809 -5.56499e-19)
(0.000113308 -0.111595 1.48759e-18)
(0.000214017 -0.107213 2.09216e-18)
(0.000278444 -0.10078 2.22126e-18)
(0.000324417 -0.0940343 1.53806e-18)
(0.000331213 -0.0869299 1.80704e-18)
(0.000297451 -0.0794888 1.8816e-18)
(0.000225949 -0.0717695 1.58049e-18)
(0.000121929 -0.0638448 1.45971e-18)
(-6.72862e-06 -0.0557955 1.44899e-18)