/*--------------------------------*- C++ -*----------------------------------*\
| =========                 |                                                 |
| \\      /  F ield         | OpenFOAM: The Open Source CFD Toolbox           |
|  \\    /   O peration     | Version:  2312                                  |
|   \\  /    A nd           | Website:  www.openfoam.com                      |
|    \\/     M anipulation  |                                                 |
\*---------------------------------------------------------------------------*/
FoamFile
{
    version     2.0;
    format      ascii;
    arch        "LSB;label=32;scalar=64";
    class       volVectorField;
    location    "0";
    object      C;
}
// * * * * * * * * * * * * * * * * * * * * * * * * * * * * * * * * * * * * * //

dimensions      [0 1 0 0 0 0 0];

internalField   nonuniform List<vector> 
3780
(
(0.539857 0.0447523 0)
(0.56065 0.0447673 2.36858e-20)
(0.582682 0.0447821 -7.4258e-19)
(0.606026 0.0447965 2.05496e-18)
(0.63076 0.0448107 1.25894e-18)
(0.656966 0.0448245 5.38712e-19)
(0.684733 0.044838 7.23936e-19)
(0.714153 0.0448512 -2.57974e-18)
(0.745325 0.044864 1.59266e-18)
(0.778353 0.0448765 6.89955e-19)
(0.813347 0.0448886 0)
(0.850425 0.0449003 1.68759e-18)
(0.88971 0.0449117 1.88193e-19)
(0.931334 0.0449227 9.1515e-19)
(0.975436 0.0449333 1.84468e-20)
(1.02216 0.0449435 -7.42784e-19)
(1.07167 0.0449534 1.3661e-18)
(1.12413 0.044963 3.65712e-18)
(1.17971 0.0449721 -1.838e-20)
(1.2386 0.0449809 -2.05837e-18)
(1.29123 0.0449882 0)
(1.33566 0.0449938 -1.30651e-19)
(1.37915 0.044999 2.90286e-20)
(1.42172 0.0450037 -1.24762e-18)
(1.4634 0.0450081 -2.25458e-18)
(1.5042 0.0450122 3.70133e-20)
(1.54413 0.0450159 -4.02215e-18)
(1.58322 0.0450194 1.51814e-18)
(1.62149 0.0450227 -4.49814e-18)
(1.65895 0.0450257 1.18695e-18)
(1.69562 0.0450286 -3.69149e-18)
(1.73152 0.0450313 0)
(1.76666 0.0450338 -3.52775e-18)
(1.80105 0.0450362 3.16768e-18)
(1.83472 0.0450384 -2.38816e-18)
(1.86768 0.0450405 1.2354e-18)
(1.89995 0.0450425 -3.71001e-20)
(1.93153 0.0450444 -1.20922e-18)
(1.96244 0.0450461 -4.21176e-18)
(1.99271 0.0450478 -6.21176e-18)
(0.540447 0.136329 -3.71031e-19)
(0.562442 0.136346 1.98714e-19)
(0.585747 0.136363 2.67213e-18)
(0.610439 0.136379 6.58924e-19)
(0.636602 0.136395 -9.80362e-21)
(0.664323 0.13641 -1.97983e-18)
(0.693694 0.136425 9.1326e-19)
(0.724814 0.136439 1.4659e-18)
(0.757787 0.136453 1.35254e-18)
(0.792723 0.136467 -7.28151e-19)
(0.829739 0.13648 1.17825e-18)
(0.868959 0.136493 -9.87457e-19)
(0.910514 0.136505 1.06608e-18)
(0.954543 0.136517 7.732e-19)
(1.00119 0.136529 -7.87414e-19)
(1.05062 0.13654 -1.00451e-18)
(1.10299 0.13655 3.76893e-18)
(1.15848 0.136561 -2.49794e-18)
(1.21727 0.13657 -7.15208e-19)
(1.27956 0.13658 -3.54982e-18)
(1.33523 0.136587 3.40898e-18)
(1.38222 0.136593 1.78164e-19)
(1.42823 0.136599 8.29813e-19)
(1.47326 0.136604 2.03527e-18)
(1.51734 0.136609 -3.92626e-19)
(1.5605 0.136613 -3.96702e-18)
(1.60274 0.136617 2.97348e-18)
(1.64409 0.13662 -6.26104e-18)
(1.68457 0.136624 -2.80453e-19)
(1.72419 0.136627 -2.14211e-19)
(1.76298 0.13663 0)
(1.80095 0.136633 -4.00732e-18)
(1.83812 0.136636 2.28074e-18)
(1.8745 0.136638 -2.78677e-20)
(1.91012 0.13664 4.26022e-18)
(1.94498 0.136643 4.52732e-18)
(1.97911 0.136645 2.005e-18)
(2.01252 0.136647 3.06276e-19)
(2.04522 0.136648 8.02901e-18)
(2.07723 0.13665 -4.50327e-18)
(0.541076 0.233862 0)
(0.564351 0.233881 -6.0179e-19)
(0.589011 0.2339 -2.25671e-18)
(0.61514 0.233918 -4.96192e-19)
(0.642825 0.233936 4.49085e-19)
(0.672158 0.233953 -4.697e-20)
(0.703238 0.233969 -1.54831e-18)
(0.736169 0.233985 1.39363e-18)
(0.77106 0.234001 -4.89099e-19)
(0.808028 0.234016 -1.55921e-19)
(0.847198 0.23403 2.25851e-18)
(0.8887 0.234044 -2.65707e-18)
(0.932672 0.234057 1.30758e-19)
(0.979263 0.23407 -3.65596e-18)
(1.02863 0.234082 2.57683e-18)
(1.08093 0.234094 -4.00575e-19)
(1.13635 0.234106 1.1226e-18)
(1.19506 0.234116 3.55262e-18)
(1.25727 0.234127 0)
(1.32319 0.234137 1.05711e-19)
(1.38209 0.234145 -5.28675e-18)
(1.43182 0.234151 1.80706e-18)
(1.4805 0.234157 4.49563e-18)
(1.52815 0.234162 0)
(1.5748 0.234167 -1.48624e-19)
(1.62046 0.234172 -2.63474e-19)
(1.66516 0.234176 -3.51535e-18)
(1.70892 0.23418 -2.34579e-19)
(1.75175 0.234183 -7.53511e-18)
(1.79368 0.234187 4.29654e-18)
(1.83472 0.23419 -4.3997e-19)
(1.8749 0.234193 -3.64082e-18)
(1.91423 0.234196 -2.75521e-19)
(1.95273 0.234198 4.97869e-19)
(1.99042 0.234201 1.77282e-18)
(2.02731 0.234203 -2.35727e-18)
(2.06342 0.234205 -1.74548e-18)
(2.09877 0.234207 0)
(2.13338 0.234209 -8.9971e-18)
(2.16725 0.234211 -5.70439e-18)
(0.541747 0.337739 -2.98373e-18)
(0.566384 0.33776 -5.68802e-20)
(0.592489 0.337781 5.88041e-19)
(0.620148 0.337802 1.53773e-18)
(0.649453 0.337821 7.61589e-19)
(0.680504 0.33784 -1.90792e-18)
(0.713404 0.337859 -3.72229e-20)
(0.748263 0.337876 -2.43457e-19)
(0.785197 0.337893 1.12576e-18)
(0.82433 0.337909 1.94377e-20)
(0.865793 0.337925 -1.94156e-20)
(0.909725 0.33794 -7.34813e-19)
(0.956272 0.337955 0)
(1.00559 0.337968 1.43892e-18)
(1.05784 0.337982 8.64341e-21)
(1.11321 0.337994 3.97967e-18)
(1.17187 0.338006 2.54413e-18)
(1.23403 0.338018 1.53172e-18)
(1.29988 0.338029 1.30144e-18)
(1.36965 0.33804 2.55199e-18)
(1.432 0.338048 0)
(1.48464 0.338055 3.24839e-18)
(1.53617 0.338061 -1.46039e-19)
(1.58661 0.338067 1.70858e-18)
(1.63599 0.338072 3.88048e-20)
(1.68433 0.338076 -3.03863e-18)
(1.73164 0.338081 1.13316e-18)
(1.77796 0.338085 -1.83832e-18)
(1.8233 0.338089 -4.87584e-19)
(1.86769 0.338092 -2.98521e-18)
(1.91113 0.338095 4.54881e-19)
(1.95366 0.338098 -7.68509e-18)
(1.9953 0.338101 -3.08899e-18)
(2.03605 0.338104 1.88506e-18)
(2.07594 0.338107 3.89013e-20)
(2.11499 0.338109 3.4995e-18)
(2.15322 0.338111 0)
(2.19064 0.338113 -3.68649e-19)
(2.22727 0.338115 1.83349e-18)
(2.26313 0.338117 -1.5439e-18)
(0.542462 0.448372 -1.05543e-18)
(0.568551 0.448396 -1.02335e-18)
(0.596193 0.44842 4.08416e-19)
(0.625481 0.448443 -3.7179e-20)
(0.656513 0.448465 -8.62678e-20)
(0.689394 0.448486 -1.41126e-18)
(0.724231 0.448506 -8.685e-20)
(0.761144 0.448525 1.452e-18)
(0.800254 0.448544 1.87506e-18)
(0.841692 0.448561 -1.94134e-20)
(0.885598 0.448578 1.00281e-18)
(0.932118 0.448595 1.33104e-19)
(0.981407 0.44861 0)
(1.03363 0.448625 1.35882e-18)
(1.08896 0.448639 3.99806e-18)
(1.14759 0.448653 -2.646e-18)
(1.20971 0.448666 1.6744e-18)
(1.27552 0.448678 -1.20159e-18)
(1.34526 0.44869 2.17701e-18)
(1.41914 0.448701 -1.05208e-18)
(1.48515 0.44871 1.93532e-20)
(1.5409 0.448717 1.52202e-18)
(1.59546 0.448723 2.2979e-18)
(1.64887 0.448729 -2.60366e-18)
(1.70116 0.448735 -3.72534e-18)
(1.75235 0.44874 3.87898e-20)
(1.80245 0.448744 -4.90296e-18)
(1.8515 0.448748 -2.7533e-18)
(1.89951 0.448752 -3.77185e-18)
(1.94651 0.448756 -9.57273e-18)
(1.99251 0.44876 5.37846e-18)
(2.03755 0.448763 2.89541e-18)
(2.08163 0.448766 1.70401e-19)
(2.12479 0.448769 2.14282e-18)
(2.16703 0.448771 -3.13333e-18)
(2.20838 0.448774 5.21028e-18)
(2.24886 0.448776 0)
(2.28848 0.448778 -1.87676e-19)
(2.32727 0.44878 8.54635e-18)
(2.36524 0.448782 3.26175e-19)
(0.543224 0.566201 -5.8769e-20)
(0.570859 0.566229 2.86413e-18)
(0.600139 0.566255 -7.36566e-19)
(0.631162 0.56628 5.49205e-21)
(0.664033 0.566305 4.68981e-20)
(0.698862 0.566328 1.15797e-18)
(0.735764 0.56635 8.92679e-19)
(0.774863 0.566371 1.21627e-18)
(0.81629 0.566392 2.48014e-19)
(0.860184 0.566411 -7.78756e-19)
(0.906691 0.566429 -1.93671e-20)
(0.955968 0.566447 -1.22115e-18)
(1.00818 0.566464 -1.34349e-19)
(1.0635 0.56648 1.93085e-20)
(1.12211 0.566495 0)
(1.18421 0.566509 -9.33003e-20)
(1.25001 0.566523 -5.29777e-18)
(1.31972 0.566536 2.23232e-18)
(1.39359 0.566548 6.58915e-19)
(1.47185 0.56656 2.86474e-18)
(1.54177 0.56657 0)
(1.60081 0.566577 2.54885e-18)
(1.65861 0.566584 -4.47819e-18)
(1.71519 0.56659 -2.62867e-19)
(1.77057 0.566596 0)
(1.82479 0.566601 0)
(1.87786 0.566606 2.64154e-18)
(1.92981 0.56661 -2.14765e-18)
(1.98067 0.566614 4.94073e-18)
(2.03045 0.566618 4.07299e-18)
(2.07918 0.566622 2.89012e-19)
(2.12689 0.566625 -1.14625e-17)
(2.17358 0.566628 2.09145e-18)
(2.2193 0.566631 -3.88483e-20)
(2.26404 0.566634 1.83267e-18)
(2.30784 0.566636 -6.18612e-18)
(2.35072 0.566639 1.4706e-18)
(2.39269 0.566641 2.33183e-18)
(2.43378 0.566643 -1.17286e-17)
(2.474 0.566645 2.4197e-18)
(0.544037 0.691694 -1.2359e-18)
(0.573317 0.691725 0)
(0.604342 0.691755 1.01896e-19)
(0.637214 0.691783 1.92174e-18)
(0.672043 0.69181 -1.06498e-18)
(0.708946 0.691836 -1.02279e-18)
(0.748047 0.69186 0)
(0.789475 0.691883 6.35862e-19)
(0.833371 0.691905 -1.93856e-20)
(0.87988 0.691926 1.16875e-18)
(0.929158 0.691946 -1.04256e-18)
(0.98137 0.691965 8.5554e-19)
(1.03669 0.691983 -1.22573e-19)
(1.0953 0.692 -1.51477e-18)
(1.15741 0.692017 -4.15217e-18)
(1.22321 0.692032 2.77765e-18)
(1.29293 0.692047 2.50028e-18)
(1.36679 0.69206 1.3633e-18)
(1.44506 0.692073 -2.05513e-19)
(1.52798 0.692086 3.10864e-18)
(1.60207 0.692096 3.24432e-19)
(1.66463 0.692104 1.66023e-18)
(1.72587 0.692111 1.91273e-18)
(1.78581 0.692117 -5.81353e-18)
(1.8445 0.692123 3.53735e-19)
(1.90194 0.692129 -3.70074e-18)
(1.95818 0.692134 1.57338e-19)
(2.01322 0.692138 3.69714e-19)
(2.06711 0.692142 -3.01667e-19)
(2.11986 0.692146 -8.13752e-20)
(2.17149 0.69215 3.98107e-18)
(2.22204 0.692154 -2.32168e-18)
(2.27152 0.692157 -1.72575e-18)
(2.31995 0.69216 -3.37314e-18)
(2.36736 0.692163 -5.59151e-18)
(2.41377 0.692165 -6.57638e-19)
(2.4592 0.692168 -8.47148e-19)
(2.50368 0.69217 3.14437e-18)
(2.54721 0.692173 -4.21393e-18)
(2.58983 0.692175 9.68399e-18)
(0.544903 0.825349 1.47679e-18)
(0.575937 0.825384 -9.08128e-20)
(0.608819 0.825418 1.23379e-18)
(0.643659 0.825449 -1.6517e-18)
(0.680574 0.825479 -1.05219e-18)
(0.719687 0.825507 -2.5358e-18)
(0.761129 0.825534 -1.4233e-18)
(0.805039 0.825559 2.01125e-18)
(0.851563 0.825583 2.27617e-18)
(0.900857 0.825606 2.73114e-19)
(0.953086 0.825628 -9.91175e-19)
(1.00842 0.825648 6.92149e-19)
(1.06706 0.825668 -2.05453e-19)
(1.12918 0.825686 2.67735e-18)
(1.195 0.825703 -1.01103e-18)
(1.26474 0.825719 -1.923e-20)
(1.33864 0.825735 -1.73554e-18)
(1.41693 0.82575 -3.58982e-18)
(1.49988 0.825763 -1.16989e-18)
(1.58777 0.825776 -2.4219e-19)
(1.66628 0.825787 4.47858e-19)
(1.73259 0.825795 1.80055e-18)
(1.7975 0.825802 3.04802e-18)
(1.86104 0.825809 -1.79232e-18)
(1.92323 0.825815 -1.96103e-18)
(1.98412 0.825821 -1.53264e-18)
(2.04372 0.825826 -2.93604e-19)
(2.10206 0.825831 -3.57323e-18)
(2.15917 0.825836 2.76236e-19)
(2.21508 0.82584 3.21435e-18)
(2.26981 0.825844 -6.76146e-18)
(2.32338 0.825847 -4.70656e-19)
(2.37582 0.82585 -6.05593e-18)
(2.42715 0.825854 2.26217e-19)
(2.4774 0.825857 3.70791e-18)
(2.52659 0.825859 2.77097e-18)
(2.57475 0.825862 6.04631e-18)
(2.62188 0.825864 -6.14459e-18)
(2.66802 0.825867 -4.0262e-18)
(2.71319 0.825869 -3.09836e-18)
(0.545826 0.967698 1.84503e-18)
(0.578727 0.967737 0)
(0.613588 0.967775 -5.57508e-19)
(0.650525 0.96781 -1.45676e-20)
(0.689661 0.967843 9.14331e-19)
(0.731128 0.967874 -9.47001e-19)
(0.775064 0.967903 -1.3753e-18)
(0.821615 0.967931 -2.31546e-18)
(0.870939 0.967957 1.63561e-19)
(0.923199 0.967982 0)
(0.978571 0.968005 4.57391e-19)
(1.03724 0.968027 -2.08285e-19)
(1.0994 0.968048 0)
(1.16526 0.968067 -3.42542e-18)
(1.23505 0.968085 1.04564e-18)
(1.30898 0.968103 4.42114e-18)
(1.38732 0.968119 2.39708e-19)
(1.47032 0.968135 1.17281e-18)
(1.55827 0.968149 1.21303e-18)
(1.65145 0.968163 3.49417e-18)
(1.73468 0.968174 1.83202e-18)
(1.80498 0.968182 2.9681e-18)
(1.87379 0.96819 5.59303e-19)
(1.94115 0.968197 2.91307e-18)
(2.00709 0.968204 -3.78467e-18)
(2.07164 0.968209 -3.62785e-19)
(2.13482 0.968215 4.73425e-19)
(2.19668 0.96822 2.62361e-18)
(2.25723 0.968225 2.7955e-18)
(2.3165 0.968229 -2.59638e-18)
(2.37452 0.968233 5.17514e-18)
(2.43131 0.968237 -2.54286e-18)
(2.48691 0.96824 3.04088e-18)
(2.54133 0.968243 -2.72613e-18)
(2.5946 0.968246 -5.48845e-18)
(2.64675 0.968249 -2.7702e-18)
(2.6978 0.968252 -3.88093e-20)
(2.74777 0.968255 -2.39335e-19)
(2.79669 0.968257 3.26061e-18)
(2.84457 0.968259 -2.61732e-18)
(0.546811 1.11931 5.82155e-19)
(0.5817 1.11935 -7.66663e-20)
(0.618668 1.11939 1.74474e-19)
(0.657838 1.11943 1.362e-19)
(0.69934 1.11947 -2.12773e-18)
(0.743313 1.1195 -4.77886e-19)
(0.789905 1.11953 -2.82734e-18)
(0.839271 1.11956 9.55412e-20)
(0.891576 1.11959 -1.90279e-18)
(0.946996 1.11962 3.04632e-18)
(1.00571 1.11964 5.25087e-18)
(1.06793 1.11967 7.39477e-20)
(1.13385 1.11969 -1.68921e-19)
(1.20369 1.11971 5.40121e-19)
(1.27769 1.11973 -4.56213e-19)
(1.3561 1.11975 1.91865e-20)
(1.43917 1.11976 -4.01013e-18)
(1.52719 1.11978 -4.36746e-19)
(1.62045 1.1198 2.31695e-18)
(1.71927 1.11981 0)
(1.80753 1.11982 -2.47007e-18)
(1.88207 1.11983 0)
(1.95504 1.11984 -2.23766e-18)
(2.02647 1.11985 1.99379e-18)
(2.0964 1.11985 -7.9272e-18)
(2.16485 1.11986 -8.86519e-18)
(2.23186 1.11987 -7.14199e-18)
(2.29745 1.11987 1.8324e-18)
(2.36166 1.11988 -4.18882e-18)
(2.42451 1.11988 -9.61842e-18)
(2.48603 1.11988 4.27182e-18)
(2.54626 1.11989 4.051e-18)
(2.60522 1.11989 2.1405e-18)
(2.66293 1.11989 -5.11189e-18)
(2.71943 1.1199 -2.13998e-18)
(2.77473 1.1199 1.09069e-17)
(2.82886 1.1199 4.74635e-18)
(2.88186 1.11991 -5.10354e-18)
(2.93373 1.11991 2.92074e-18)
(2.98451 1.11991 -4.41755e-18)
(0.54786 1.28077 4.68769e-20)
(0.584868 1.28082 -9.19649e-19)
(0.62408 1.28087 -2.38476e-18)
(0.665628 1.28091 8.66537e-19)
(0.709649 1.28095 -6.80003e-19)
(0.756292 1.28099 0)
(0.805712 1.28103 -2.8141e-18)
(0.858075 1.28106 1.01675e-18)
(0.913556 1.28109 9.03551e-19)
(0.97234 1.28112 1.49867e-18)
(1.03462 1.28115 2.45834e-18)
(1.10062 1.28117 2.89968e-19)
(1.17054 1.28119 -7.38934e-20)
(1.24462 1.28122 8.00603e-19)
(1.32311 1.28124 2.0249e-18)
(1.40628 1.28126 -1.29265e-18)
(1.4944 1.28127 -6.87337e-18)
(1.58776 1.28129 -2.03977e-18)
(1.68668 1.28131 -3.82338e-19)
(1.7915 1.28132 4.83119e-18)
(1.88511 1.28133 -1.71786e-18)
(1.96418 1.28134 -2.02344e-18)
(2.04158 1.28135 -3.70556e-19)
(2.11735 1.28136 -6.25024e-18)
(2.19152 1.28137 -1.24977e-19)
(2.26412 1.28137 6.1477e-18)
(2.3352 1.28138 2.04185e-18)
(2.40477 1.28138 -2.92549e-18)
(2.47288 1.28139 5.9723e-18)
(2.53955 1.28139 0)
(2.60481 1.2814 3.85507e-18)
(2.66869 1.2814 -1.32397e-17)
(2.73123 1.28141 -3.17179e-18)
(2.79244 1.28141 4.13244e-19)
(2.85237 1.28141 -1.72191e-18)
(2.91103 1.28142 2.65694e-18)
(2.96845 1.28142 1.1438e-17)
(3.02466 1.28142 2.5669e-18)
(3.07968 1.28142 -4.23481e-19)
(3.13354 1.28143 -7.87378e-18)
(0.548979 1.45274 -1.79086e-18)
(0.588243 1.4528 1.38363e-19)
(0.629845 1.45285 1.35903e-18)
(0.673925 1.4529 6.80902e-19)
(0.72063 1.45294 1.22408e-19)
(0.770116 1.45299 0)
(0.822549 1.45302 2.19197e-18)
(0.878104 1.45306 -8.3987e-19)
(0.936967 1.45309 2.81345e-18)
(0.999334 1.45312 -3.71478e-18)
(1.06541 1.45315 1.0273e-18)
(1.13543 1.45318 1.87864e-18)
(1.20961 1.45321 0)
(1.28821 1.45323 1.54647e-18)
(1.37149 1.45325 2.65517e-19)
(1.45973 1.45327 9.02772e-19)
(1.55322 1.45329 5.8959e-18)
(1.65227 1.45331 0)
(1.75722 1.45332 -6.83594e-18)
(1.86842 1.45334 -5.33187e-18)
(1.96774 1.45335 2.05849e-18)
(2.05163 1.45336 -3.85153e-20)
(2.13375 1.45337 -1.53583e-18)
(2.21413 1.45338 1.36733e-18)
(2.29282 1.45339 -1.14499e-18)
(2.36986 1.45339 -1.42953e-18)
(2.44526 1.4534 -3.34896e-18)
(2.51908 1.4534 1.27186e-18)
(2.59133 1.45341 -4.72787e-18)
(2.66207 1.45341 -1.73242e-19)
(2.73131 1.45342 -3.12076e-18)
(2.79908 1.45342 -3.85626e-18)
(2.86543 1.45343 -2.70705e-18)
(2.93038 1.45343 6.26855e-18)
(2.99396 1.45343 -3.81111e-18)
(3.05619 1.45344 6.28355e-18)
(3.11711 1.45344 -9.08125e-18)
(3.17675 1.45344 -3.49005e-18)
(3.23512 1.45345 0)
(3.29227 1.45345 3.71844e-18)
(0.549239 1.6154 -5.30661e-19)
(0.589024 1.61537 -4.455e-19)
(0.631178 1.61535 3.34769e-19)
(0.675842 1.61532 -1.89935e-19)
(0.723165 1.6153 1.92227e-18)
(0.773305 1.61529 1.83547e-18)
(0.82643 1.61527 0)
(0.882718 1.61525 3.42561e-18)
(0.942357 1.61524 -1.43414e-19)
(1.00555 1.61522 4.79272e-18)
(1.0725 1.61521 -1.59565e-18)
(1.14343 1.6152 -1.12579e-18)
(1.21859 1.61519 -3.0798e-18)
(1.29822 1.61517 -1.58543e-18)
(1.3826 1.61516 -1.15879e-19)
(1.47199 1.61516 -1.52586e-18)
(1.56671 1.61515 5.86033e-18)
(1.66707 1.61514 -4.18632e-18)
(1.7734 1.61513 3.77554e-18)
(1.88606 1.61512 5.30235e-18)
(1.98667 1.61512 1.67781e-18)
(2.07166 1.61511 3.99783e-20)
(2.15486 1.61511 -2.13018e-18)
(2.2363 1.61511 3.23402e-19)
(2.31602 1.6151 6.46125e-18)
(2.39407 1.6151 3.6766e-18)
(2.47046 1.6151 -2.46151e-18)
(2.54524 1.61509 2.51846e-19)
(2.61845 1.61509 -1.81142e-18)
(2.69011 1.61509 4.80371e-18)
(2.76026 1.61509 6.46053e-18)
(2.82893 1.61509 -1.01152e-17)
(2.89614 1.61508 1.50461e-17)
(2.96194 1.61508 2.48567e-19)
(3.02635 1.61508 2.90905e-18)
(3.0894 1.61508 3.5652e-18)
(3.15112 1.61508 4.42355e-18)
(3.21154 1.61508 7.46634e-18)
(3.27068 1.61508 2.91146e-18)
(3.32858 1.61508 -3.68476e-18)
(0.548612 1.766 -3.73723e-18)
(0.587134 1.76598 5.33646e-19)
(0.627949 1.76595 -4.78741e-20)
(0.671194 1.76593 -8.63057e-19)
(0.717014 1.76591 -2.67699e-19)
(0.765562 1.76589 -1.44941e-19)
(0.817 1.76587 1.17353e-19)
(0.8715 1.76585 -2.56353e-19)
(0.929245 1.76584 3.35836e-18)
(0.990427 1.76582 8.82244e-19)
(1.05525 1.76581 -3.8748e-18)
(1.12394 1.7658 1.97298e-20)
(1.19671 1.76579 -1.21421e-18)
(1.27381 1.76578 1.1586e-18)
(1.35551 1.76577 -6.17835e-18)
(1.44206 1.76576 -4.84479e-19)
(1.53377 1.76575 4.99029e-18)
(1.63094 1.76574 4.13963e-18)
(1.73389 1.76573 5.26345e-19)
(1.84298 1.76572 3.5248e-18)
(1.9404 1.76572 2.08861e-18)
(2.02269 1.76571 0)
(2.10325 1.76571 4.00445e-20)
(2.1821 1.7657 -1.93684e-19)
(2.25929 1.7657 -2.18469e-18)
(2.33486 1.7657 2.16189e-18)
(2.40883 1.7657 -2.14266e-18)
(2.48123 1.76569 8.87113e-18)
(2.55211 1.76569 3.02139e-18)
(2.6215 1.76569 3.13078e-18)
(2.68942 1.76569 -5.89689e-18)
(2.75591 1.76568 -1.93537e-18)
(2.82099 1.76568 -4.5108e-18)
(2.8847 1.76568 0)
(2.94707 1.76568 -1.53499e-17)
(3.00811 1.76568 -5.14254e-18)
(3.06787 1.76568 -9.30907e-18)
(3.12637 1.76567 -6.28984e-18)
(3.18364 1.76567 -4.17455e-19)
(3.23969 1.76567 4.88953e-19)
(0.547985 1.91661 -5.4177e-19)
(0.585243 1.91658 -5.60809e-19)
(0.62472 1.91656 6.24909e-19)
(0.666547 1.91653 -7.39129e-19)
(0.710864 1.91651 -1.25178e-19)
(0.757819 1.91649 3.20254e-19)
(0.80757 1.91647 -2.00171e-18)
(0.860283 1.91646 -1.91814e-18)
(0.916134 1.91644 7.96476e-19)
(0.975309 1.91643 1.80391e-18)
(1.03801 1.91641 -5.11203e-18)
(1.10444 1.9164 9.61487e-20)
(1.17482 1.91639 3.05444e-18)
(1.2494 1.91638 1.88357e-18)
(1.32841 1.91637 -3.58762e-18)
(1.41213 1.91635 -3.21223e-20)
(1.50083 1.91635 -3.99655e-18)
(1.59481 1.91634 2.6986e-18)
(1.69439 1.91633 -2.21241e-18)
(1.7999 1.91632 -5.85479e-19)
(1.89413 1.91631 0)
(1.97372 1.91631 4.61403e-18)
(2.05163 1.91631 -2.59954e-18)
(2.1279 1.9163 6.80584e-18)
(2.20256 1.9163 -2.15162e-18)
(2.27565 1.91629 2.12791e-18)
(2.34719 1.91629 -4.28928e-18)
(2.41722 1.91629 6.72916e-18)
(2.48578 1.91629 -4.80267e-18)
(2.55289 1.91628 -3.31168e-18)
(2.61858 1.91628 1.52801e-18)
(2.68289 1.91628 -4.37366e-18)
(2.74584 1.91628 0)
(2.80746 1.91628 0)
(2.86778 1.91627 -6.32625e-18)
(2.92683 1.91627 1.55122e-17)
(2.98463 1.91627 2.62204e-18)
(3.04121 1.91627 6.52422e-18)
(3.09659 1.91627 5.19377e-18)
(3.15081 1.91627 1.95179e-18)
(0.547358 2.06721 -1.03376e-18)
(0.583353 2.06718 2.14227e-18)
(0.621491 2.06716 -1.5492e-18)
(0.6619 2.06714 -1.45002e-19)
(0.704714 2.06712 -2.07611e-18)
(0.750077 2.0671 -1.08207e-19)
(0.798141 2.06708 -1.91022e-18)
(0.849066 2.06706 9.60826e-20)
(0.903023 2.06704 -9.80072e-19)
(0.960191 2.06703 -7.60774e-19)
(1.02076 2.06701 1.46677e-18)
(1.08494 2.067 1.17979e-18)
(1.15294 2.06699 -1.15995e-19)
(1.22499 2.06697 7.66567e-19)
(1.30132 2.06696 -1.65075e-18)
(1.3822 2.06695 4.67547e-18)
(1.46789 2.06694 2.20971e-19)
(1.55869 2.06693 -2.74985e-18)
(1.65489 2.06693 -4.00114e-18)
(1.75682 2.06692 7.86685e-18)
(1.84786 2.06691 -9.91786e-19)
(1.92475 2.06691 1.74656e-18)
(2.00002 2.0669 4.00838e-20)
(2.0737 2.0669 2.08809e-18)
(2.14583 2.06689 -4.50133e-18)
(2.21644 2.06689 -4.67177e-18)
(2.28556 2.06689 -1.94125e-19)
(2.35322 2.06688 6.54269e-18)
(2.41945 2.06688 -6.52866e-18)
(2.48428 2.06688 -6.66201e-18)
(2.54775 2.06688 -1.14839e-17)
(2.60987 2.06687 5.061e-18)
(2.67069 2.06687 -3.04158e-18)
(2.73022 2.06687 1.74043e-18)
(2.78849 2.06687 -4.46892e-19)
(2.84554 2.06687 1.19165e-17)
(2.90138 2.06686 -1.68018e-18)
(2.95604 2.06686 6.3036e-18)
(3.00955 2.06686 2.1564e-18)
(3.06192 2.06686 8.1007e-20)
(0.546732 2.21781 4.90088e-19)
(0.581464 2.21779 6.98972e-19)
(0.618263 2.21776 2.41988e-18)
(0.657253 2.21774 -4.79963e-20)
(0.698564 2.21772 -2.66652e-20)
(0.742335 2.2177 -1.38129e-18)
(0.788712 2.21768 -3.61728e-18)
(0.837849 2.21766 -1.03406e-18)
(0.889912 2.21764 1.78298e-18)
(0.945074 2.21763 1.13603e-19)
(1.00352 2.21761 -2.23231e-18)
(1.06545 2.2176 -2.41743e-18)
(1.13106 2.21758 -1.1255e-18)
(1.20057 2.21757 -1.09707e-18)
(1.27423 2.21756 1.49046e-19)
(1.35227 2.21755 -2.83185e-19)
(1.43496 2.21754 1.36642e-18)
(1.52256 2.21753 1.25236e-18)
(1.61539 2.21752 6.28705e-18)
(1.71374 2.21751 -3.5486e-18)
(1.80158 2.2175 4.0079e-18)
(1.87578 2.2175 3.07847e-18)
(1.94841 2.21749 -4.01051e-20)
(2.0195 2.21749 2.6123e-18)
(2.0891 2.21749 -2.23794e-18)
(2.15723 2.21748 2.59699e-18)
(2.22392 2.21748 -4.29875e-19)
(2.28921 2.21748 -1.92379e-19)
(2.35311 2.21747 -5.00694e-18)
(2.41567 2.21747 -2.72701e-18)
(2.47691 2.21747 -4.8593e-18)
(2.53686 2.21747 -7.3952e-18)
(2.59554 2.21746 5.47861e-18)
(2.65298 2.21746 -3.79246e-19)
(2.70921 2.21746 -2.65891e-18)
(2.76425 2.21746 -3.12017e-18)
(2.81813 2.21746 4.04807e-20)
(2.87087 2.21745 -8.38295e-20)
(2.9225 2.21745 -9.18883e-19)
(2.97304 2.21745 -8.1049e-20)
(0.546107 2.36841 -6.05183e-19)
(0.579574 2.36839 -8.2797e-20)
(0.615035 2.36836 -3.2264e-19)
(0.652606 2.36834 -8.51547e-19)
(0.692415 2.36832 2.5428e-18)
(0.734593 2.3683 7.86107e-19)
(0.779283 2.36828 -2.49441e-18)
(0.826633 2.36826 -2.76352e-18)
(0.876801 2.36824 4.95906e-18)
(0.929957 2.36822 -9.47606e-19)
(0.986277 2.36821 -6.75298e-19)
(1.04595 2.36819 4.13074e-18)
(1.10917 2.36818 1.28738e-18)
(1.17616 2.36817 3.5757e-19)
(1.24714 2.36816 -4.80941e-18)
(1.32234 2.36814 -4.62897e-20)
(1.40202 2.36813 9.64302e-20)
(1.48644 2.36812 0)
(1.57589 2.36811 -2.33057e-18)
(1.67066 2.36811 -6.75336e-19)
(1.75531 2.3681 1.61956e-18)
(1.82681 2.36809 -1.12913e-18)
(1.8968 2.36809 -3.92346e-18)
(1.96531 2.36808 9.21405e-19)
(2.03237 2.36808 4.23883e-19)
(2.09802 2.36807 5.43059e-18)
(2.16229 2.36807 8.30103e-18)
(2.2252 2.36807 1.00764e-17)
(2.28678 2.36806 -2.87613e-18)
(2.34707 2.36806 2.4543e-18)
(2.40608 2.36806 -5.08607e-18)
(2.46384 2.36806 -2.67496e-18)
(2.52039 2.36805 -5.45343e-19)
(2.57574 2.36805 -3.12056e-18)
(2.62992 2.36805 2.22621e-18)
(2.68296 2.36805 1.03051e-17)
(2.73488 2.36805 -2.96534e-19)
(2.78571 2.36804 4.05184e-20)
(2.83546 2.36804 -2.40139e-18)
(2.88416 2.36804 2.93072e-18)
(0.545482 2.51901 6.29643e-19)
(0.577686 2.51899 -1.31081e-19)
(0.611807 2.51896 1.58353e-18)
(0.64796 2.51894 1.67239e-18)
(0.686266 2.51892 -1.32264e-19)
(0.726852 2.5189 5.80089e-19)
(0.769854 2.51888 -2.29482e-19)
(0.815417 2.51886 1.97401e-20)
(0.863691 2.51884 -4.16282e-18)
(0.91484 2.51882 2.83418e-18)
(0.969034 2.51881 1.97821e-20)
(1.02645 2.51879 0)
(1.08729 2.51878 -2.50556e-18)
(1.15175 2.51876 -3.58783e-18)
(1.22005 2.51875 1.9828e-20)
(1.29241 2.51874 2.92002e-19)
(1.36908 2.51873 -1.86111e-18)
(1.45032 2.51872 1.61096e-18)
(1.53639 2.51871 -2.56635e-18)
(1.62758 2.5187 4.92283e-18)
(1.70904 2.51869 -2.40457e-19)
(1.77784 2.51868 -4.45244e-18)
(1.84518 2.51868 1.09325e-18)
(1.91111 2.51867 -2.52686e-18)
(1.97565 2.51867 -1.36178e-18)
(2.03882 2.51866 -2.34629e-19)
(2.10066 2.51866 -5.98851e-19)
(2.16119 2.51866 -5.6976e-18)
(2.22045 2.51865 6.33361e-19)
(2.27846 2.51865 2.42482e-19)
(2.33524 2.51865 2.61884e-18)
(2.39083 2.51865 -7.4559e-18)
(2.44524 2.51864 -1.58553e-17)
(2.4985 2.51864 5.4139e-18)
(2.55064 2.51864 2.47244e-18)
(2.60168 2.51864 2.33128e-18)
(2.65164 2.51863 -5.06854e-19)
(2.70054 2.51863 1.08671e-17)
(2.74842 2.51863 -6.34175e-19)
(2.79528 2.51863 -1.16306e-17)
(0.544857 2.66961 1.36129e-18)
(0.575797 2.66959 1.31761e-18)
(0.60858 2.66956 1.56977e-18)
(0.643315 2.66954 -4.67196e-19)
(0.680117 2.66951 1.19705e-20)
(0.719111 2.66949 -8.58729e-19)
(0.760426 2.66947 1.42553e-18)
(0.804201 2.66945 0)
(0.850582 2.66943 1.04245e-18)
(0.899724 2.66942 -1.02114e-18)
(0.951791 2.6694 -1.12313e-18)
(1.00696 2.66938 5.42699e-19)
(1.06541 2.66937 9.64768e-20)
(1.12734 2.66936 1.02506e-19)
(1.19296 2.66934 -3.5599e-19)
(1.26248 2.66933 3.21507e-18)
(1.33615 2.66932 3.78829e-19)
(1.41419 2.66931 -4.50199e-18)
(1.49689 2.6693 3.97578e-20)
(1.5845 2.66929 0)
(1.66277 2.66928 -2.21051e-19)
(1.72887 2.66927 -5.46896e-18)
(1.79357 2.66927 -4.01763e-20)
(1.85691 2.66926 -2.95243e-18)
(1.91892 2.66926 -1.21659e-18)
(1.97961 2.66925 -1.11854e-18)
(2.03903 2.66925 4.76785e-19)
(2.09719 2.66924 -1.38317e-18)
(2.15412 2.66924 -1.61048e-18)
(2.20985 2.66924 -7.85416e-19)
(2.26441 2.66923 -1.40555e-18)
(2.31781 2.66923 3.1953e-18)
(2.37009 2.66923 1.94923e-19)
(2.42126 2.66923 -3.03825e-18)
(2.47136 2.66922 -4.26103e-19)
(2.52039 2.66922 -9.015e-18)
(2.56839 2.66922 4.79646e-18)
(2.61538 2.66922 -2.78539e-18)
(2.66138 2.66922 -2.40568e-18)
(2.7064 2.66922 -6.69283e-19)
(0.544233 2.82021 0)
(0.57391 2.82018 6.99301e-19)
(0.605353 2.82016 -6.70887e-19)
(0.63867 2.82013 1.52003e-18)
(0.673969 2.82011 1.30658e-18)
(0.711371 2.82009 3.27376e-18)
(0.750999 2.82007 6.7041e-19)
(0.792986 2.82005 8.32472e-19)
(0.837473 2.82003 6.76688e-19)
(0.884608 2.82001 9.6475e-20)
(0.93455 2.81999 2.01513e-18)
(0.987464 2.81998 -4.98866e-18)
(1.04353 2.81996 4.29384e-18)
(1.10293 2.81995 1.39132e-18)
(1.16587 2.81993 -9.65916e-20)
(1.23255 2.81992 -8.27389e-19)
(1.30321 2.81991 0)
(1.37807 2.8199 -1.54099e-18)
(1.45739 2.81988 -3.55525e-18)
(1.54143 2.81987 -1.28966e-18)
(1.6165 2.81987 0)
(1.6799 2.81986 -1.60678e-18)
(1.74197 2.81985 -1.10265e-19)
(1.80272 2.81985 -2.90708e-18)
(1.86219 2.81984 1.13638e-17)
(1.92041 2.81984 1.88525e-18)
(1.9774 2.81983 -6.59309e-18)
(2.03318 2.81983 0)
(2.08779 2.81983 -1.71781e-18)
(2.14125 2.81982 -9.12473e-18)
(2.19358 2.81982 1.51274e-18)
(2.2448 2.81982 -8.40229e-18)
(2.29494 2.81981 -6.2309e-18)
(2.34403 2.81981 -4.13963e-18)
(2.39208 2.81981 4.53243e-18)
(2.43911 2.81981 1.78134e-18)
(2.48515 2.8198 9.69147e-18)
(2.53022 2.8198 3.74725e-18)
(2.57434 2.8198 1.95297e-19)
(2.61752 2.8198 -3.15617e-19)
(0.543609 2.97081 -3.58044e-19)
(0.572022 2.97078 -1.41657e-18)
(0.602127 2.97075 -3.15137e-18)
(0.634025 2.97073 -2.27349e-19)
(0.667822 2.9707 0)
(0.70363 2.97068 -1.74393e-18)
(0.741571 2.97066 1.58071e-18)
(0.781771 2.97064 2.22008e-18)
(0.824364 2.97062 7.92295e-19)
(0.869493 2.9706 -2.03851e-18)
(0.917308 2.97058 -1.9043e-18)
(0.96797 2.97057 -2.92512e-18)
(1.02165 2.97055 1.43356e-18)
(1.07852 2.97054 2.91678e-18)
(1.13878 2.97052 1.16757e-18)
(1.20263 2.97051 -3.45697e-18)
(1.27027 2.97049 -1.48136e-18)
(1.34195 2.97048 7.23788e-18)
(1.41789 2.97047 0)
(1.49835 2.97046 1.59619e-18)
(1.57023 2.97045 -3.50433e-18)
(1.63094 2.97044 1.3353e-18)
(1.69036 2.97044 1.29838e-18)
(1.74853 2.97043 -4.90707e-19)
(1.80547 2.97042 1.12738e-18)
(1.86121 2.97042 -2.25288e-18)
(1.91577 2.97042 -1.66116e-18)
(1.96918 2.97041 -1.33218e-18)
(2.02146 2.97041 2.73165e-19)
(2.07265 2.9704 -3.3738e-19)
(2.12275 2.9704 1.78736e-18)
(2.17179 2.9704 -5.08607e-18)
(2.2198 2.97039 1.9519e-19)
(2.26679 2.97039 -4.69811e-18)
(2.3128 2.97039 -3.25981e-18)
(2.35783 2.97039 -2.36351e-18)
(2.40191 2.97038 6.26698e-19)
(2.44506 2.97038 -1.14833e-17)
(2.4873 2.97038 2.04768e-18)
(2.52865 2.97038 5.52309e-19)
(0.542985 3.1214 6.31306e-19)
(0.570135 3.12137 7.6396e-20)
(0.598901 3.12134 -4.82125e-20)
(0.629381 3.12132 -6.05975e-19)
(0.661674 3.1213 0)
(0.695891 3.12127 -1.32524e-18)
(0.732145 3.12125 -3.3543e-18)
(0.770557 3.12123 -1.28667e-18)
(0.811256 3.12121 -6.12605e-19)
(0.854378 3.12119 1.23018e-18)
(0.900067 3.12117 1.13206e-18)
(0.948477 3.12115 2.06712e-18)
(0.999768 3.12114 -3.47106e-18)
(1.05411 3.12112 4.45123e-18)
(1.11169 3.12111 -2.72651e-18)
(1.1727 3.12109 1.16756e-18)
(1.23734 3.12108 0)
(1.30583 3.12106 -1.72471e-18)
(1.37839 3.12105 6.95177e-18)
(1.45528 3.12104 2.5457e-19)
(1.52397 3.12103 5.96308e-18)
(1.58197 3.12102 -1.69781e-18)
(1.63875 3.12102 2.02051e-18)
(1.69433 3.12101 2.35027e-19)
(1.74874 3.121 5.46411e-18)
(1.802 3.121 5.96377e-18)
(1.85414 3.12099 0)
(1.90518 3.12099 -6.68137e-19)
(1.95514 3.12099 -5.72354e-18)
(2.00404 3.12098 1.54681e-19)
(2.05192 3.12098 5.49855e-18)
(2.09878 3.12098 -7.29813e-18)
(2.14465 3.12097 -6.98936e-18)
(2.18956 3.12097 -2.15794e-18)
(2.23352 3.12097 -3.43891e-18)
(2.27655 3.12096 -4.27173e-18)
(2.31867 3.12096 -1.48251e-18)
(2.3599 3.12096 -1.1775e-18)
(2.40027 3.12096 -5.65579e-18)
(2.43978 3.12095 2.79171e-18)
(0.542363 3.27199 0)
(0.568249 3.27196 -1.87066e-18)
(0.595676 3.27193 2.65237e-18)
(0.624737 3.27191 9.57144e-20)
(0.655528 3.27188 4.53991e-19)
(0.688152 3.27186 -2.41184e-18)
(0.722718 3.27184 -8.35819e-19)
(0.759343 3.27182 -1.61813e-18)
(0.798148 3.2718 -1.98354e-20)
(0.839264 3.27178 -1.21029e-18)
(0.882827 3.27176 -7.43407e-19)
(0.928984 3.27174 -2.19206e-19)
(0.977888 3.27172 -3.39683e-19)
(1.0297 3.2717 1.98966e-20)
(1.08461 3.27169 1.34507e-18)
(1.14277 3.27167 3.94368e-18)
(1.20441 3.27166 1.87014e-19)
(1.26971 3.27165 1.02744e-18)
(1.3389 3.27163 1.99736e-18)
(1.4122 3.27162 1.63382e-18)
(1.4777 3.27161 3.45657e-19)
(1.53301 3.2716 -6.3793e-18)
(1.58714 3.27159 -3.18587e-18)
(1.64014 3.27159 4.19046e-18)
(1.69202 3.27158 5.41371e-19)
(1.7428 3.27158 1.79065e-18)
(1.79251 3.27157 1.98923e-18)
(1.84118 3.27157 3.27267e-18)
(1.88881 3.27156 2.12534e-18)
(1.93544 3.27156 -3.72394e-18)
(1.98109 3.27155 9.64174e-18)
(2.02577 3.27155 3.41309e-19)
(2.06951 3.27155 7.86947e-18)
(2.11233 3.27154 -6.43924e-18)
(2.15424 3.27154 -7.07147e-18)
(2.19527 3.27154 4.06545e-20)
(2.23543 3.27153 1.93436e-18)
(2.27475 3.27153 -2.62804e-18)
(2.31323 3.27153 -2.10586e-18)
(2.3509 3.27153 -8.03958e-18)