/*--------------------------------*- C++ -*----------------------------------*\
| =========                 |                                                 |
| \\      /  F ield         | OpenFOAM: The Open Source CFD Toolbox           |
|  \\    /   O peration     | Version:  2312                                  |
|   \\  /    A nd           | Website:  www.openfoam.com                      |
|    \\/     M anipulation  |                                                 |
\*---------------------------------------------------------------------------*/
FoamFile
{
    version     2.0;
    format      ascii;
    arch        "LSB;label=32;scalar=64";
    class       volScalarField;
    location    "0";
    object      Cx;
}
// * * * * * * * * * * * * * * * * * * * * * * * * * * * * * * * * * * * * * //

dimensions      [0 1 0 0 0 0 0];

internalField   nonuniform List<scalar> 
3780
(
0.539857
0.56065
0.582682
0.606026
0.63076
0.656966
0.684733
0.714153
0.745325
0.778353
0.813347
0.850425
0.88971
0.931334
0.975436
1.02216
1.07167
1.12413
1.17971
1.2386
1.29123
1.33566
1.37915
1.42172
1.4634
1.5042
1.54413
1.58322
1.62149
1.65895
1.69562
1.73152
1.76666
1.80105
1.83472
1.86768
1.89995
1.93153
1.96244
1.99271
0.540447
0.562442
0.585747
0.610439
0.636602
0.664323
0.693694
0.724814
0.757787
0.792723
0.829739
0.868959
0.910514
0.954543
1.00119
1.05062
1.10299
1.15848
1.21727
1.27956
1.33523
1.38222
1.42823
1.47326
1.51734
1.5605
1.60274
1.64409
1.68457
1.72419
1.76298
1.80095
1.83812
1.8745
1.91012
1.94498
1.97911
2.01252
2.04522
2.07723
0.541076
0.564351
0.589011
0.61514
0.642825
0.672158
0.703238
0.736169
0.77106
0.808028
0.847198
0.8887
0.932672
0.979263
1.02863
1.08093
1.13635
1.19506
1.25727
1.32319
1.38209
1.43182
1.4805
1.52815
1.5748
1.62046
1.66516
1.70892
1.75175
1.79368
1.83472
1.8749
1.91423
1.95273
1.99042
2.02731
2.06342
2.09877
2.13338
2.16725
0.541747
0.566384
0.592489
0.620148
0.649453
0.680504
0.713404
0.748263
0.785197
0.82433
0.865793
0.909725
0.956272
1.00559
1.05784
1.11321
1.17187
1.23403
1.29988
1.36965
1.432
1.48464
1.53617
1.58661
1.63599
1.68433
1.73164
1.77796
1.8233
1.86769
1.91113
1.95366
1.9953
2.03605
2.07594
2.11499
2.15322
2.19064
2.22727
2.26313
0.542462
0.568551
0.596193
0.625481
0.656513
0.689394
0.724231
0.761144
0.800254
0.841692
0.885598
0.932118
0.981407
1.03363
1.08896
1.14759
1.20971
1.27552
1.34526
1.41914
1.48515
1.5409
1.59546
1.64887
1.70116
1.75235
1.80245
1.8515
1.89951
1.94651
1.99251
2.03755
2.08163
2.12479
2.16703
2.20838
2.24886
2.28848
2.32727
2.36524
0.543224
0.570859
0.600139
0.631162
0.664033
0.698862
0.735764
0.774863
0.81629
0.860184
0.906691
0.955968
1.00818
1.0635
1.12211
1.18421
1.25001
1.31972
1.39359
1.47185
1.54177
1.60081
1.65861
1.71519
1.77057
1.82479
1.87786
1.92981
1.98067
2.03045
2.07918
2.12689
2.17358
2.2193
2.26404
2.30784
2.35072
2.39269
2.43378
2.474
0.544037
0.573317
0.604342
0.637214
0.672043
0.708946
0.748047
0.789475
0.833371
0.87988
0.929158
0.98137
1.03669
1.0953
1.15741
1.22321
1.29293
1.36679
1.44506
1.52798
1.60207
1.66463
1.72587
1.78581
1.8445
1.90194
1.95818
2.01322
2.06711
2.11986
2.17149
2.22204
2.27152
2.31995
2.36736
2.41377
2.4592
2.50368
2.54721
2.58983
0.544903
0.575937
0.608819
0.643659
0.680574
0.719687
0.761129
0.805039
0.851563
0.900857
0.953086
1.00842
1.06706
1.12918
1.195
1.26474
1.33864
1.41693
1.49988
1.58777
1.66628
1.73259
1.7975
1.86104
1.92323
1.98412
2.04372
2.10206
2.15917
2.21508
2.26981
2.32338
2.37582
2.42715
2.4774
2.52659
2.57475
2.62188
2.66802
2.71319
0.545826
0.578727
0.613588
0.650525
0.689661
0.731128
0.775064
0.821615
0.870939
0.923199
0.978571
1.03724
1.0994
1.16526
1.23505
1.30898
1.38732
1.47032
1.55827
1.65145
1.73468
1.80498
1.87379
1.94115
2.00709
2.07164
2.13482
2.19668
2.25723
2.3165
2.37452
2.43131
2.48691
2.54133
2.5946
2.64675
2.6978
2.74777
2.79669
2.84457
0.546811
0.5817
0.618668
0.657838
0.69934
0.743313
0.789905
0.839271
0.891576
0.946996
1.00571
1.06793
1.13385
1.20369
1.27769
1.3561
1.43917
1.52719
1.62045
1.71927
1.80753
1.88207
1.95504
2.02647
2.0964
2.16485
2.23186
2.29745
2.36166
2.42451
2.48603
2.54626
2.60522
2.66293
2.71943
2.77473
2.82886
2.88186
2.93373
2.98451
0.54786
0.584868
0.62408
0.665628
0.709649
0.756292
0.805712
0.858075
0.913556
0.97234
1.03462
1.10062
1.17054
1.24462
1.32311
1.40628
1.4944
1.58776
1.68668
1.7915
1.88511
1.96418
2.04158
2.11735
2.19152
2.26412
2.3352
2.40477
2.47288
2.53955
2.60481
2.66869
2.73123
2.79244
2.85237
2.91103
2.96845
3.02466
3.07968
3.13354
0.548979
0.588243
0.629845
0.673925
0.72063
0.770116
0.822549
0.878104
0.936967
0.999334
1.06541
1.13543
1.20961
1.28821
1.37149
1.45973
1.55322
1.65227
1.75722
1.86842
1.96774
2.05163
2.13375
2.21413
2.29282
2.36986
2.44526
2.51908
2.59133
2.66207
2.73131
2.79908
2.86543
2.93038
2.99396
3.05619
3.11711
3.17675
3.23512
3.29227
0.549239
0.589024
0.631178
0.675842
0.723165
0.773305
0.82643
0.882718
0.942357
1.00555
1.0725
1.14343
1.21859
1.29822
1.3826
1.47199
1.56671
1.66707
1.7734
1.88606
1.98667
2.07166
2.15486
2.2363
2.31602
2.39407
2.47046
2.54524
2.61845
2.69011
2.76026
2.82893
2.89614
2.96194
3.02635
3.0894
3.15112
3.21154
3.27068
3.32858
0.548612
0.587134
0.627949
0.671194
0.717014
0.765562
0.817
0.8715
0.929245
0.990427
1.05525
1.12394
1.19671
1.27381
1.35551
1.44206
1.53377
1.63094
1.73389
1.84298
1.9404
2.02269
2.10325
2.1821
2.25929
2.33486
2.40883
2.48123
2.55211
2.6215
2.68942
2.75591
2.82099
2.8847
2.94707
3.00811
3.06787
3.12637
3.18364
3.23969
0.547985
0.585243
0.62472
0.666547
0.710864
0.757819
0.80757
0.860283
0.916134
0.975309
1.03801
1.10444
1.17482
1.2494
1.32841
1.41213
1.50083
1.59481
1.69439
1.7999
1.89413
1.97372
2.05163
2.1279
2.20256
2.27565
2.34719
2.41722
2.48578
2.55289
2.61858
2.68289
2.74584
2.80746
2.86778
2.92683
2.98463
3.04121
3.09659
3.15081
0.547358
0.583353
0.621491
0.6619
0.704714
0.750077
0.798141
0.849066
0.903023
0.960191
1.02076
1.08494
1.15294
1.22499
1.30132
1.3822
1.46789
1.55869
1.65489
1.75682
1.84786
1.92475
2.00002
2.0737
2.14583
2.21644
2.28556
2.35322
2.41945
2.48428
2.54775
2.60987
2.67069
2.73022
2.78849
2.84554
2.90138
2.95604
3.00955
3.06192
0.546732
0.581464
0.618263
0.657253
0.698564
0.742335
0.788712
0.837849
0.889912
0.945074
1.00352
1.06545
1.13106
1.20057
1.27423
1.35227
1.43496
1.52256
1.61539
1.71374
1.80158
1.87578
1.94841
2.0195
2.0891
2.15723
2.22392
2.28921
2.35311
2.41567
2.47691
2.53686
2.59554
2.65298
2.70921
2.76425
2.81813
2.87087
2.9225
2.97304
0.546107
0.579574
0.615035
0.652606
0.692415
0.734593
0.779283
0.826633
0.876801
0.929957
0.986277
1.04595
1.10917
1.17616
1.24714
1.32234
1.40202
1.48644
1.57589
1.67066
1.75531
1.82681
1.8968
1.96531
2.03237
2.09802
2.16229
2.2252
2.28678
2.34707
2.40608
2.46384
2.52039
2.57574
2.62992
2.68296
2.73488
2.78571
2.83546
2.88416
0.545482
0.577686
0.611807
0.64796
0.686266
0.726852
0.769854
0.815417
0.863691
0.91484
0.969034
1.02645
1.08729
1.15175
1.22005
1.29241
1.36908
1.45032
1.53639
1.62758
1.70904
1.77784
1.84518
1.91111
1.97565
2.03882
2.10066
2.16119
2.22045
2.27846
2.33524
2.39083
2.44524
2.4985
2.55064
2.60168
2.65164
2.70054
2.74842
2.79528
0.544857
0.575797
0.60858
0.643315
0.680117
0.719111
0.760426
0.804201
0.850582
0.899724
0.951791
1.00696
1.06541
1.12734
1.19296
1.26248
1.33615
1.41419
1.49689
1.5845
1.66277
1.72887
1.79357
1.85691
1.91892
1.97961
2.03903
2.09719
2.15412
2.20985
2.26441
2.31781
2.37009
2.42126
2.47136
2.52039
2.56839
2.61538
2.66138
2.7064
0.544233
0.57391
0.605353
0.63867
0.673969
0.711371
0.750999
0.792986
0.837473
0.884608
0.93455
0.987464
1.04353
1.10293
1.16587
1.23255
1.30321
1.37807
1.45739
1.54143
1.6165
1.6799
1.74197
1.80272
1.86219
1.92041
1.9774
2.03318
2.08779
2.14125
2.19358
2.2448
2.29494
2.34403
2.39208
2.43911
2.48515
2.53022
2.57434
2.61752
0.543609
0.572022
0.602127
0.634025
0.667822
0.70363
0.741571
0.781771
0.824364
0.869493
0.917308
0.96797
1.02165
1.07852
1.13878
1.20263
1.27027
1.34195
1.41789
1.49835
1.57023
1.63094
1.69036
1.74853
1.80547
1.86121
1.91577
1.96918
2.02146
2.07265
2.12275
2.17179
2.2198
2.26679
2.3128
2.35783
2.40191
2.44506
2.4873
2.52865
0.542985
0.570135
0.598901
0.629381
0.661674
0.695891
0.732145
0.770557
0.811256
0.854378
0.900067
0.948477
0.999768
1.05411
1.11169
1.1727
1.23734
1.30583
1.37839
1.45528
1.52397
1.58197
1.63875
1.69433
1.74874
1.802
1.85414
1.90518
1.95514
2.00404
2.05192
2.09878
2.14465
2.18956
2.23352
2.27655
2.31867
2.3599
2.40027
2.43978
0.542363
0.568249
0.595676
0.624737
0.655528
0.688152
0.722718
0.759343
0.798148
0.839264
0.882827
0.928984
0.977888
1.0297
1.08461
1.14277
1.20441
1.26971
1.3389
1.4122
1.4777
1.53301
1.58714
1.64014
1.69202
1.7428
1.79251
1.84118
1.88881
1.93544
1.98109
2.02577
2.06951
2.11233
2.15424
2.19527
2.23543
2.27475
2.31323
2.3509
0.54174
0.566363
0.592451
0.620093
0.649381
0.680413
0.713293
0.74813
0.785041
0.82415
0.865587
0.909492
0.95601
1.0053
1.05752
1.11285
1.17147
1.23359
1.2994
1.36913
1.43144
1.48404
1.53554
1.58595
1.6353
1.6836
1.73089
1.77718
1.82249
1.86685
1.91027
1.95277
1.99437
2.0351
2.07497
2.114
2.1522
2.18959
2.2262
2.26204
0.541118
0.564477
0.589227
0.615451
0.643236
0.672675
0.703868
0.736918
0.771935
0.809037
0.848349
0.89
0.934132
0.980891
1.03043
1.08293
1.13854
1.19747
1.25991
1.32606
1.38517
1.43508
1.48394
1.53176
1.57858
1.62441
1.66927
1.71318
1.75617
1.79825
1.83944
1.87977
1.91924
1.95788
1.9957
2.03272
2.06897
2.10444
2.13917
2.17317
0.540497
0.562592
0.586003
0.610808
0.637091
0.664938
0.694444
0.725706
0.758829
0.793925
0.831111
0.87051
0.912255
0.956486
1.00335
1.053
1.10561
1.16135
1.22041
1.28299
1.33891
1.38612
1.43234
1.47757
1.52186
1.56521
1.60765
1.64919
1.68985
1.72966
1.76862
1.80676
1.8441
1.88065
1.91643
1.95145
1.98574
2.0193
2.05215
2.08431
0.539875
0.560707
0.58278
0.606167
0.630946
0.657201
0.68502
0.714495
0.745725
0.778814
0.813874
0.851021
0.890379
0.932081
0.976266
1.02308
1.07268
1.12524
1.18092
1.23992
1.29265
1.33716
1.38074
1.42339
1.46514
1.50602
1.54603
1.5852
1.62354
1.66107
1.6978
1.73377
1.76897
1.80343
1.83717
1.87019
1.90251
1.93415
1.96513
1.99545
0.539255
0.558823
0.579557
0.601526
0.624803
0.649466
0.675597
0.703285
0.732621
0.763704
0.796638
0.831533
0.868505
0.907679
0.949185
0.993162
1.03976
1.08913
1.14144
1.19686
1.24639
1.28821
1.32914
1.36921
1.40843
1.44683
1.48441
1.52121
1.55722
1.59248
1.62699
1.66077
1.69384
1.72622
1.75791
1.78893
1.81929
1.84902
1.87811
1.9066
0.538635
0.55694
0.576335
0.596885
0.61866
0.64173
0.666175
0.692075
0.719518
0.748595
0.779403
0.812046
0.846632
0.883277
0.922105
0.963244
1.00683
1.05302
1.10195
1.1538
1.20014
1.23925
1.27755
1.31503
1.35172
1.38764
1.4228
1.45722
1.49091
1.5239
1.55618
1.58778
1.61872
1.64901
1.67865
1.70767
1.73608
1.76388
1.7911
1.81775
0.538015
0.555057
0.573114
0.592246
0.612517
0.633996
0.656754
0.680867
0.706417
0.733487
0.76217
0.79256
0.824761
0.858878
0.895027
0.933329
0.973911
1.01691
1.06247
1.11074
1.15388
1.1903
1.22596
1.26085
1.29502
1.32846
1.3612
1.39324
1.42461
1.45532
1.48538
1.5148
1.5436
1.5718
1.5994
1.62642
1.65287
1.67875
1.7041
1.72891
0.537396
0.553174
0.569893
0.587607
0.606376
0.626263
0.647334
0.669661
0.693317
0.718381
0.744938
0.773077
0.802892
0.834481
0.867952
0.903416
0.940991
0.980804
1.02299
1.06768
1.10764
1.14136
1.17437
1.20668
1.23832
1.26928
1.29959
1.32927
1.35831
1.38675
1.41458
1.44182
1.46849
1.4946
1.52016
1.54517
1.56966
1.59364
1.6171
1.64007
0.537082
0.55222
0.568259
0.585252
0.603258
0.622335
0.642548
0.663964
0.686655
0.710697
0.73617
0.763159
0.791755
0.822054
0.854156
0.888168
0.924206
0.962389
1.00284
1.04571
1.08403
1.11637
1.14803
1.17902
1.20935
1.23905
1.26812
1.29657
1.32443
1.35169
1.37839
1.40451
1.43009
1.45513
1.47963
1.50362
1.52711
1.5501
1.5726
1.59463
0.537082
0.55222
0.568259
0.585252
0.603258
0.622335
0.642548
0.663964
0.686655
0.710697
0.73617
0.763159
0.791755
0.822054
0.854156
0.888168
0.924206
0.962389
1.00284
1.04571
1.08403
1.11637
1.14803
1.17902
1.20935
1.23905
1.26812
1.29657
1.32443
1.35169
1.37839
1.40451
1.43009
1.45513
1.47963
1.50362
1.52711
1.5501
1.5726
1.59463
0.537082
0.55222
0.568259
0.585252
0.603258
0.622335
0.642548
0.663964
0.686655
0.710697
0.73617
0.763159
0.791755
0.822054
0.854156
0.888168
0.924206
0.962389
1.00284
1.04571
1.08403
1.11637
1.14803
1.17902
1.20935
1.23905
1.26812
1.29657
1.32443
1.35169
1.37839
1.40451
1.43009
1.45513
1.47963
1.50362
1.52711
1.5501
1.5726
1.59463
0.537082
0.55222
0.568259
0.585252
0.603258
0.622335
0.642548
0.663964
0.686655
0.710697
0.73617
0.763159
0.791755
0.822054
0.854156
0.888168
0.924206
0.962389
1.00284
1.04571
1.08403
1.11637
1.14803
1.17902
1.20935
1.23905
1.26812
1.29657
1.32443
1.35169
1.37839
1.40451
1.43009
1.45513
1.47963
1.50362
1.52711
1.5501
1.5726
1.59463
0.537082
0.55222
0.568259
0.585252
0.603258
0.622335
0.642548
0.663964
0.686655
0.710697
0.73617
0.763159
0.791755
0.822054
0.854156
0.888168
0.924206
0.962389
1.00284
1.04571
1.08403
1.11637
1.14803
1.17902
1.20935
1.23905
1.26812
1.29657
1.32443
1.35169
1.37839
1.40451
1.43009
1.45513
1.47963
1.50362
1.52711
1.5501
1.5726
1.59463
0.537082
0.55222
0.568259
0.585252
0.603258
0.622335
0.642548
0.663964
0.686655
0.710697
0.73617
0.763159
0.791755
0.822054
0.854156
0.888168
0.924206
0.962389
1.00284
1.04571
1.08403
1.11637
1.14803
1.17902
1.20935
1.23905
1.26812
1.29657
1.32443
1.35169
1.37839
1.40451
1.43009
1.45513
1.47963
1.50362
1.52711
1.5501
1.5726
1.59463
0.537082
0.55222
0.568259
0.585252
0.603258
0.622335
0.642548
0.663964
0.686655
0.710697
0.73617
0.763159
0.791755
0.822054
0.854156
0.888168
0.924206
0.962389
1.00284
1.04571
1.08403
1.11637
1.14803
1.17902
1.20935
1.23905
1.26812
1.29657
1.32443
1.35169
1.37839
1.40451
1.43009
1.45513
1.47963
1.50362
1.52711
1.5501
1.5726
1.59463
0.537082
0.55222
0.568259
0.585252
0.603258
0.622335
0.642548
0.663964
0.686655
0.710697
0.73617
0.763159
0.791755
0.822054
0.854156
0.888168
0.924206
0.962389
1.00284
1.04571
1.08403
1.11637
1.14803
1.17902
1.20935
1.23905
1.26812
1.29657
1.32443
1.35169
1.37839
1.40451
1.43009
1.45513
1.47963
1.50362
1.52711
1.5501
1.5726
1.59463
0.537082
0.55222
0.568259
0.585252
0.603258
0.622335
0.642548
0.663964
0.686655
0.710697
0.73617
0.763159
0.791755
0.822054
0.854156
0.888168
0.924206
0.962389
1.00284
1.04571
1.08403
1.11637
1.14803
1.17902
1.20935
1.23905
1.26812
1.29657
1.32443
1.35169
1.37839
1.40451
1.43009
1.45513
1.47963
1.50362
1.52711
1.5501
1.5726
1.59463
0.537082
0.55222
0.568259
0.585252
0.603258
0.622335
0.642548
0.663964
0.686655
0.710697
0.73617
0.763159
0.791755
0.822054
0.854156
0.888168
0.924206
0.962389
1.00284
1.04571
1.08403
1.11637
1.14803
1.17902
1.20935
1.23905
1.26812
1.29657
1.32443
1.35169
1.37839
1.40451
1.43009
1.45513
1.47963
1.50362
1.52711
1.5501
1.5726
1.59463
0.537082
0.55222
0.568259
0.585252
0.603258
0.622335
0.642548
0.663964
0.686655
0.710697
0.73617
0.763159
0.791755
0.822054
0.854156
0.888168
0.924206
0.962389
1.00284
1.04571
1.08403
1.11637
1.14803
1.17902
1.20935
1.23905
1.26812
1.29657
1.32443
1.35169
1.37839
1.40451
1.43009
1.45513
1.47963
1.50362
1.52711
1.5501
1.5726
1.59463
0.537082
0.55222
0.568259
0.585252
0.603258
0.622335
0.642548
0.663964
0.686655
0.710697
0.73617
0.763159
0.791755
0.822054
0.854156
0.888168
0.924206
0.962389
1.00284
1.04571
1.08403
1.11637
1.14803
1.17902
1.20935
1.23905
1.26812
1.29657
1.32443
1.35169
1.37839
1.40451
1.43009
1.45513
1.47963
1.50362
1.52711
1.5501
1.5726
1.59463
0.537082
0.55222
0.568259
0.585252
0.603258
0.622335
0.642548
0.663964
0.686655
0.710697
0.73617
0.763159
0.791755
0.822054
0.854156
0.888168
0.924206
0.962389
1.00284
1.04571
1.08403
1.11637
1.14803
1.17902
1.20935
1.23905
1.26812
1.29657
1.32443
1.35169
1.37839
1.40451
1.43009
1.45513
1.47963
1.50362
1.52711
1.5501
1.5726
1.59463
0.537082
0.55222
0.568259
0.585252
0.603258
0.622335
0.642548
0.663964
0.686655
0.710697
0.73617
0.763159
0.791755
0.822054
0.854156
0.888168
0.924206
0.962389
1.00284
1.04571
1.08403
1.11637
1.14803
1.17902
1.20935
1.23905
1.26812
1.29657
1.32443
1.35169
1.37839
1.40451
1.43009
1.45513
1.47963
1.50362
1.52711
1.5501
1.5726
1.59463
0.537082
0.55222
0.568259
0.585252
0.603258
0.622335
0.642548
0.663964
0.686655
0.710697
0.73617
0.763159
0.791755
0.822054
0.854156
0.888168
0.924206
0.962389
1.00284
1.04571
1.08403
1.11637
1.14803
1.17902
1.20935
1.23905
1.26812
1.29657
1.32443
1.35169
1.37839
1.40451
1.43009
1.45513
1.47963
1.50362
1.52711
1.5501
1.5726
1.59463
0.537082
0.55222
0.568259
0.585252
0.603258
0.622335
0.642548
0.663964
0.686655
0.710697
0.73617
0.763159
0.791755
0.822054
0.854156
0.888168
0.924206
0.962389
1.00284
1.04571
1.08403
1.11637
1.14803
1.17902
1.20935
1.23905
1.26812
1.29657
1.32443
1.35169
1.37839
1.40451
1.43009
1.45513
1.47963
1.50362
1.52711
1.5501
1.5726
1.59463
0.537082
0.55222
0.568259
0.585252
0.603258
0.622335
0.642548
0.663964
0.686655
0.710697
0.73617
0.763159
0.791755
0.822054
0.854156
0.888168
0.924206
0.962389
1.00284
1.04571
1.08403
1.11637
1.14803
1.17902
1.20935
1.23905
1.26812
1.29657
1.32443
1.35169
1.37839
1.40451
1.43009
1.45513
1.47963
1.50362
1.52711
1.5501
1.5726
1.59463
0.537082
0.55222
0.568259
0.585252
0.603258
0.622335
0.642548
0.663964
0.686655
0.710697
0.73617
0.763159
0.791755
0.822054
0.854156
0.888168
0.924206
0.962389
1.00284
1.04571
1.08403
1.11637
1.14803
1.17902
1.20935
1.23905
1.26812
1.29657
1.32443
1.35169
1.37839
1.40451
1.43009
1.45513
1.47963
1.50362
1.52711
1.5501
1.5726
1.59463
0.537082
0.55222
0.568259
0.585252
0.603258
0.622335
0.642548
0.663964
0.686655
0.710697
0.73617
0.763159
0.791755
0.822054
0.854156
0.888168
0.924206
0.962389
1.00284
1.04571
1.08403
1.11637
1.14803
1.17902
1.20935
1.23905
1.26812
1.29657
1.32443
1.35169
1.37839
1.40451
1.43009
1.45513
1.47963
1.50362
1.52711
1.5501
1.5726
1.59463
0.537082
0.55222
0.568259
0.585252
0.603258
0.622335
0.642548
0.663964
0.686655
0.710697
0.73617
0.763159
0.791755
0.822054
0.854156
0.888168
0.924206
0.962389
1.00284
1.04571
1.08403
1.11637
1.14803
1.17902
1.20935
1.23905
1.26812
1.29657
1.32443
1.35169
1.37839
1.40451
1.43009
1.45513
1.47963
1.50362
1.52711
1.5501
1.5726
1.59463
0.537082
0.55222
0.568259
0.585252
0.603258
0.622335
0.642548
0.663964
0.686655
0.710697
0.73617
0.763159
0.791755
0.822054
0.854156
0.888168
0.924206
0.962389
1.00284
1.04571
1.08403
1.11637
1.14803
1.17902
1.20935
1.23905
1.26812
1.29657
1.32443
1.35169
1.37839
1.40451
1.43009
1.45513
1.47963
1.50362
1.52711
1.5501
1.5726
1.59463
3.37694
3.28714
3.19734
3.10754
3.01774
2.92795
2.83815
2.74836
2.65856
2.56877
2.47897
2.38918
2.29939
2.2096
2.11981
2.03002
1.94023
1.85045
1.76067
1.67088
3.50012
3.70775
3.92131
4.14097
4.36692
4.59932
4.83836
5.08424
5.33714
5.59726
5.86482
6.14003
6.4231
6.71425
7.01373
7.32176
7.63859
7.96448
8.29967
8.64444
8.99906
9.36381
9.73899
10.1249
10.5218
10.93
11.35
11.7819
12.2261
12.6831
13.153
13.6365
14.1337
14.6451
15.1711
15.7122
16.2687
16.8411
17.4298
18.0354
3.41097
3.61985
3.83469
4.05567
4.28297
4.51677
4.75725
5.0046
5.25902
5.5207
5.78987
6.06673
6.3515
6.6444
6.94568
7.25556
7.57429
7.90214
8.23934
8.58619
8.94294
9.30988
9.68731
10.0755
10.4748
10.8855
11.308
11.7425
12.1894
12.6491
13.1219
13.6082
14.1084
14.6229
15.1521
15.6964
16.2563
16.8321
17.4244
18.0336
3.32183
3.53195
3.74807
3.97037
4.19903
4.43422
4.67613
4.92496
5.18089
5.44415
5.71492
5.99343
6.2799
6.57455
6.87762
7.18936
7.51
7.8398
8.17902
8.52793
8.88681
9.25595
9.63563
10.0262
10.4278
10.841
11.266
11.7031
12.1526
12.6151
13.0907
13.5799
14.0831
14.6007
15.1331
15.6806
16.2438
16.8231
17.4189
18.0317
3.23269
3.44405
3.66145
3.88507
4.11508
4.35167
4.59502
4.84532
5.10277
5.36759
5.63997
5.92013
6.2083
6.5047
6.80957
7.12316
7.4457
7.77746
8.11869
8.46968
8.83069
9.20202
9.58395
9.9768
10.3809
10.7965
11.224
11.6637
12.1159
12.5811
13.0595
13.5517
14.0579
14.5785
15.114
15.6648
16.2314
16.8141
17.4134
18.0299
3.14355
3.35615
3.57484
3.79977
4.03114
4.26912
4.5139
4.76568
5.02466
5.29103
5.56502
5.84683
6.1367
6.43485
6.74152
7.05696
7.3814
7.71512
8.05837
8.41142
8.77457
9.14808
9.53227
9.92744
10.3339
10.752
11.182
11.6243
12.0792
12.5471
13.0284
13.5234
14.0326
14.5563
15.095
15.649
16.2189
16.8051
17.408
18.0281
3.05441
3.26826
3.48823
3.71448
3.9472
4.18657
4.43279
4.68605
4.94654
5.21447
5.49007
5.77354
6.0651
6.365
6.67347
6.99076
7.31711
7.65278
7.99804
8.35317
8.71844
9.09415
9.48059
9.87808
10.2869
10.7074
11.14
11.5848
12.0424
12.5131
12.9972
13.4952
14.0073
14.5341
15.0759
15.6333
16.2065
16.7961
17.4025
18.0263
2.96528
3.18037
3.40162
3.62919
3.86326
4.10403
4.35168
4.60641
4.86842
5.13792
5.41512
5.70024
5.99351
6.29516
6.60542
6.92456
7.25281
7.59044
7.93772
8.29491
8.66232
9.04022
9.42892
9.82872
10.2399
10.6629
11.098
11.5454
12.0057
12.4791
12.9661
13.4669
13.982
14.5119
15.0569
15.6175
16.194
16.7871
17.3971
18.0245
2.87615
3.09249
3.31501
3.54389
3.77933
4.02149
4.27057
4.52678
4.79031
5.06136
5.34017
5.62694
5.92191
6.22531
6.53738
6.85836
7.18851
7.5281
7.87739
8.23666
8.6062
8.98629
9.37724
9.77936
10.193
10.6184
11.056
11.506
11.969
12.4451
12.9349
13.4386
13.9568
14.4897
15.0379
15.6017
16.1816
16.7781
17.3916
18.0226
2.78703
3.0046
3.2284
3.45861
3.69539
3.93895
4.18947
4.44715
4.71219
4.98481
5.26522
5.55365
5.85032
6.15546
6.46933
6.79216
7.12422
7.46576
7.81707
8.17841
8.55007
8.93236
9.32556
9.73
10.146
10.5739
11.014
11.4666
11.9322
12.4111
12.9037
13.4104
13.9315
14.4675
15.0188
15.5859
16.1692
16.7691
17.3861
18.0208
2.69791
2.91672
3.1418
3.37332
3.61146
3.85641
4.10836
4.36752
4.63408
4.90826
5.19028
5.48036
5.77872
6.08562
6.40128
6.72596
7.05993
7.40343
7.75675
8.12016
8.49395
8.87843
9.27388
9.68064
10.099
10.5293
10.972
11.4272
11.8955
12.3772
12.8726
13.3821
13.9062
14.4453
14.9998
15.5701
16.1567
16.7601
17.3807
18.019
2.60879
2.82885
3.05521
3.28804
3.52753
3.77387
4.02726
4.28789
4.55597
4.83171
5.11533
5.40706
5.70713
6.01577
6.33324
6.65977
6.99563
7.34109
7.69642
8.06191
8.43783
8.8245
9.22221
9.63128
10.052
10.4848
10.93
11.3878
11.8588
12.3432
12.8414
13.3539
13.881
14.4231
14.9808
15.5543
16.1443
16.7511
17.3752
18.0172
2.51968
2.74098
2.96861
3.20276
3.4436
3.69134
3.94616
4.20826
4.47786
4.75516
5.04039
5.33377
5.63554
5.94593
6.26519
6.59357
6.93134
7.27876
7.6361
8.00365
8.38171
8.77057
9.17053
9.58193
10.0051
10.4403
10.888
11.3484
11.822
12.3092
12.8102
13.3256
13.8557
14.4009
14.9617
15.5385
16.1318
16.7421
17.3697
18.0153
2.43058
2.65311
2.88202
3.11748
3.35968
3.6088
3.86506
4.12863
4.39975
4.67861
4.96545
5.26048
5.56395
5.87609
6.19714
6.52738
6.86705
7.21642
7.57578
7.9454
8.32559
8.71664
9.11886
9.53257
9.9581
10.3958
10.846
11.309
11.7853
12.2752
12.7791
13.2973
13.8304
14.3787
14.9427
15.5228
16.1194
16.7331
17.3643
18.0135
2.34148
2.56525
2.79544
3.03221
3.27576
3.52628
3.78396
4.04901
4.32164
4.60207
4.89051
5.18719
5.49236
5.80624
6.1291
6.46118
6.80276
7.15409
7.51546
7.88715
8.26947
8.66271
9.06718
9.48321
9.91113
10.3513
10.804
11.2696
11.7486
12.2412
12.7479
13.2691
13.8052
14.3565
14.9237
15.507
16.107
16.7241
17.3588
18.0117
2.25239
2.4774
2.70885
2.94694
3.19184
3.44375
3.70286
3.96939
4.24354
4.52552
4.81557
5.1139
5.42077
5.7364
6.06106
6.39499
6.73846
7.09175
7.45514
7.8289
8.21335
8.60878
9.01551
9.43386
9.86415
10.3067
10.762
11.2302
11.7118
12.2072
12.7167
13.2408
13.7799
14.3343
14.9046
15.4912
16.0945
16.7151
17.3534
18.0099
2.16331
2.38955
2.62228
2.86167
3.10793
3.36122
3.62177
3.88977
4.16543
4.44898
4.74063
5.04062
5.34918
5.66656
5.99302
6.3288
6.67417
7.02942
7.39482
7.77065
8.15723
8.55485
8.96383
9.3845
9.81718
10.2622
10.72
11.1908
11.6751
12.1732
12.6856
13.2126
13.7546
14.3121
14.8856
15.4754
16.0821
16.7061
17.3479
18.008
2.07424
2.30171
2.53571
2.77641
3.02402
3.2787
3.54068
3.81015
4.08733
4.37244
4.66569
4.96733
5.27759
5.59672
5.92497
6.2626
6.60988
6.96709
7.3345
7.71241
8.10111
8.50092
8.91216
9.33514
9.77021
10.2177
10.678
11.1514
11.6384
12.1392
12.6544
13.1843
13.7293
14.2899
14.8665
15.4596
16.0696
16.6971
17.3424
18.0062
1.98518
2.21388
2.44915
2.69116
2.94011
3.19619
3.45959
3.73054
4.00923
4.2959
4.59076
4.89405
5.20601
5.52689
5.85693
6.19641
6.5456
6.90476
7.27418
7.65416
8.04499
8.447
8.86049
9.28579
9.72324
10.1732
10.636
11.112
11.6017
12.1053
12.6233
13.1561
13.7041
14.2677
14.8475
15.4438
16.0572
16.6881
17.337
18.0044
1.89613
2.12605
2.36259
2.60591
2.85621
3.11367
3.37851
3.65093
3.93114
4.21936
4.51582
4.82077
5.13442
5.45705
5.78889
6.13022
6.48131
6.84242
7.21386
7.59591
7.98888
8.39307
8.80881
9.23643
9.67627
10.1287
10.594
11.0726
11.5649
12.0713
12.5921
13.1278
13.6788
14.2455
14.8285
15.4281
16.0448
16.6791
17.3315
18.0026
1.80709
2.03824
2.27604
2.52067
2.77231
3.03116
3.29743
3.57132
3.85304
4.14282
4.44089
4.74748
5.06284
5.38721
5.72086
6.06403
6.41702
6.78009
7.15354
7.53766
7.93276
8.33914
8.75714
9.18708
9.6293
10.0842
10.552
11.0332
11.5282
12.0373
12.5609
13.0995
13.6535
14.2234
14.8094
15.4123
16.0323
16.6701
17.3261
18.0008
1.7623
1.99412
2.2326
2.47792
2.73027
2.98985
3.25686
3.53151
3.81401
4.1046
4.40349
4.71093
5.02715
5.35242
5.68698
6.0311
6.38506
6.74914
7.12361
7.50879
7.90498
8.31248
8.73163
9.16276
9.6062
10.0623
10.5315
11.014
11.5103
12.0209
12.546
13.0861
13.6416
14.213
14.8008
15.4053
16.0271
16.6667
17.3245
18.0011
1.7623
1.99412
2.2326
2.47792
2.73027
2.98985
3.25686
3.53151
3.81401
4.1046
4.40349
4.71093
5.02715
5.35242
5.68698
6.0311
6.38506
6.74914
7.12361
7.50879
7.90498
8.31248
8.73163
9.16276
9.6062
10.0623
10.5315
11.014
11.5103
12.0209
12.546
13.0861
13.6416
14.213
14.8008
15.4053
16.0271
16.6667
17.3245
18.0011
1.7623
1.99412
2.2326
2.47792
2.73027
2.98985
3.25686
3.53151
3.81401
4.1046
4.40349
4.71093
5.02715
5.35242
5.68698
6.0311
6.38506
6.74914
7.12361
7.50879
7.90498
8.31248
8.73163
9.16276
9.6062
10.0623
10.5315
11.014
11.5103
12.0209
12.546
13.0861
13.6416
14.213
14.8008
15.4053
16.0271
16.6667
17.3245
18.0011
1.7623
1.99412
2.2326
2.47792
2.73027
2.98985
3.25686
3.53151
3.81401
4.1046
4.40349
4.71093
5.02715
5.35242
5.68698
6.0311
6.38506
6.74914
7.12361
7.50879
7.90498
8.31248
8.73163
9.16276
9.6062
10.0623
10.5315
11.014
11.5103
12.0209
12.546
13.0861
13.6416
14.213
14.8008
15.4053
16.0271
16.6667
17.3245
18.0011
1.7623
1.99412
2.2326
2.47792
2.73027
2.98985
3.25686
3.53151
3.81401
4.1046
4.40349
4.71093
5.02715
5.35242
5.68698
6.0311
6.38506
6.74914
7.12361
7.50879
7.90498
8.31248
8.73163
9.16276
9.6062
10.0623
10.5315
11.014
11.5103
12.0209
12.546
13.0861
13.6416
14.213
14.8008
15.4053
16.0271
16.6667
17.3245
18.0011
1.7623
1.99412
2.2326
2.47792
2.73027
2.98985
3.25686
3.53151
3.81401
4.1046
4.40349
4.71093
5.02715
5.35242
5.68698
6.0311
6.38506
6.74914
7.12361
7.50879
7.90498
8.31248
8.73163
9.16276
9.6062
10.0623
10.5315
11.014
11.5103
12.0209
12.546
13.0861
13.6416
14.213
14.8008
15.4053
16.0271
16.6667
17.3245
18.0011
1.7623
1.99412
2.2326
2.47792
2.73027
2.98985
3.25686
3.53151
3.81401
4.1046
4.40349
4.71093
5.02715
5.35242
5.68698
6.0311
6.38506
6.74914
7.12361
7.50879
7.90498
8.31248
8.73163
9.16276
9.6062
10.0623
10.5315
11.014
11.5103
12.0209
12.546
13.0861
13.6416
14.213
14.8008
15.4053
16.0271
16.6667
17.3245
18.0011
1.7623
1.99412
2.2326
2.47792
2.73027
2.98985
3.25686
3.53151
3.81401
4.1046
4.40349
4.71093
5.02715
5.35242
5.68698
6.0311
6.38506
6.74914
7.12361
7.50879
7.90498
8.31248
8.73163
9.16276
9.6062
10.0623
10.5315
11.014
11.5103
12.0209
12.546
13.0861
13.6416
14.213
14.8008
15.4053
16.0271
16.6667
17.3245
18.0011
1.7623
1.99412
2.2326
2.47792
2.73027
2.98985
3.25686
3.53151
3.81401
4.1046
4.40349
4.71093
5.02715
5.35242
5.68698
6.0311
6.38506
6.74914
7.12361
7.50879
7.90498
8.31248
8.73163
9.16276
9.6062
10.0623
10.5315
11.014
11.5103
12.0209
12.546
13.0861
13.6416
14.213
14.8008
15.4053
16.0271
16.6667
17.3245
18.0011
1.7623
1.99412
2.2326
2.47792
2.73027
2.98985
3.25686
3.53151
3.81401
4.1046
4.40349
4.71093
5.02715
5.35242
5.68698
6.0311
6.38506
6.74914
7.12361
7.50879
7.90498
8.31248
8.73163
9.16276
9.6062
10.0623
10.5315
11.014
11.5103
12.0209
12.546
13.0861
13.6416
14.213
14.8008
15.4053
16.0271
16.6667
17.3245
18.0011
1.7623
1.99412
2.2326
2.47792
2.73027
2.98985
3.25686
3.53151
3.81401
4.1046
4.40349
4.71093
5.02715
5.35242
5.68698
6.0311
6.38506
6.74914
7.12361
7.50879
7.90498
8.31248
8.73163
9.16276
9.6062
10.0623
10.5315
11.014
11.5103
12.0209
12.546
13.0861
13.6416
14.213
14.8008
15.4053
16.0271
16.6667
17.3245
18.0011
1.7623
1.99412
2.2326
2.47792
2.73027
2.98985
3.25686
3.53151
3.81401
4.1046
4.40349
4.71093
5.02715
5.35242
5.68698
6.0311
6.38506
6.74914
7.12361
7.50879
7.90498
8.31248
8.73163
9.16276
9.6062
10.0623
10.5315
11.014
11.5103
12.0209
12.546
13.0861
13.6416
14.213
14.8008
15.4053
16.0271
16.6667
17.3245
18.0011
1.7623
1.99412
2.2326
2.47792
2.73027
2.98985
3.25686
3.53151
3.81401
4.1046
4.40349
4.71093
5.02715
5.35242
5.68698
6.0311
6.38506
6.74914
7.12361
7.50879
7.90498
8.31248
8.73163
9.16276
9.6062
10.0623
10.5315
11.014
11.5103
12.0209
12.546
13.0861
13.6416
14.213
14.8008
15.4053
16.0271
16.6667
17.3245
18.0011
1.7623
1.99412
2.2326
2.47792
2.73027
2.98985
3.25686
3.53151
3.81401
4.1046
4.40349
4.71093
5.02715
5.35242
5.68698
6.0311
6.38506
6.74914
7.12361
7.50879
7.90498
8.31248
8.73163
9.16276
9.6062
10.0623
10.5315
11.014
11.5103
12.0209
12.546
13.0861
13.6416
14.213
14.8008
15.4053
16.0271
16.6667
17.3245
18.0011
1.7623
1.99412
2.2326
2.47792
2.73027
2.98985
3.25686
3.53151
3.81401
4.1046
4.40349
4.71093
5.02715
5.35242
5.68698
6.0311
6.38506
6.74914
7.12361
7.50879
7.90498
8.31248
8.73163
9.16276
9.6062
10.0623
10.5315
11.014
11.5103
12.0209
12.546
13.0861
13.6416
14.213
14.8008
15.4053
16.0271
16.6667
17.3245
18.0011
1.7623
1.99412
2.2326
2.47792
2.73027
2.98985
3.25686
3.53151
3.81401
4.1046
4.40349
4.71093
5.02715
5.35242
5.68698
6.0311
6.38506
6.74914
7.12361
7.50879
7.90498
8.31248
8.73163
9.16276
9.6062
10.0623
10.5315
11.014
11.5103
12.0209
12.546
13.0861
13.6416
14.213
14.8008
15.4053
16.0271
16.6667
17.3245
18.0011
1.7623
1.99412
2.2326
2.47792
2.73027
2.98985
3.25686
3.53151
3.81401
4.1046
4.40349
4.71093
5.02715
5.35242
5.68698
6.0311
6.38506
6.74914
7.12361