/*--------------------------------*- C++ -*----------------------------------*\
| =========                 |                                                 |
| \\      /  F ield         | OpenFOAM: The Open Source CFD Toolbox           |
|  \\    /   O peration     | Version:  2312                                  |
|   \\  /    A nd           | Website:  www.openfoam.com                      |
|    \\/     M anipulation  |                                                 |
\*---------------------------------------------------------------------------*/
FoamFile
{
    version     2.0;
    format      ascii;
    arch        "LSB;label=32;scalar=64";
    class       volScalarField;
    location    "0";
    object      Cy;
}
// * * * * * * * * * * * * * * * * * * * * * * * * * * * * * * * * * * * * * //

dimensions      [0 1 0 0 0 0 0];

internalField   nonuniform List<scalar> 
3780
(
0.0447523
0.0447673
0.0447821
0.0447965
0.0448107
0.0448245
0.044838
0.0448512
0.044864
0.0448765
0.0448886
0.0449003
0.0449117
0.0449227
0.0449333
0.0449435
0.0449534
0.044963
0.0449721
0.0449809
0.0449882
0.0449938
0.044999
0.0450037
0.0450081
0.0450122
0.0450159
0.0450194
0.0450227
0.0450257
0.0450286
0.0450313
0.0450338
0.0450362
0.0450384
0.0450405
0.0450425
0.0450444
0.0450461
0.0450478
0.136329
0.136346
0.136363
0.136379
0.136395
0.13641
0.136425
0.136439
0.136453
0.136467
0.13648
0.136493
0.136505
0.136517
0.136529
0.13654
0.13655
0.136561
0.13657
0.13658
0.136587
0.136593
0.136599
0.136604
0.136609
0.136613
0.136617
0.13662
0.136624
0.136627
0.13663
0.136633
0.136636
0.136638
0.13664
0.136643
0.136645
0.136647
0.136648
0.13665
0.233862
0.233881
0.2339
0.233918
0.233936
0.233953
0.233969
0.233985
0.234001
0.234016
0.23403
0.234044
0.234057
0.23407
0.234082
0.234094
0.234106
0.234116
0.234127
0.234137
0.234145
0.234151
0.234157
0.234162
0.234167
0.234172
0.234176
0.23418
0.234183
0.234187
0.23419
0.234193
0.234196
0.234198
0.234201
0.234203
0.234205
0.234207
0.234209
0.234211
0.337739
0.33776
0.337781
0.337802
0.337821
0.33784
0.337859
0.337876
0.337893
0.337909
0.337925
0.33794
0.337955
0.337968
0.337982
0.337994
0.338006
0.338018
0.338029
0.33804
0.338048
0.338055
0.338061
0.338067
0.338072
0.338076
0.338081
0.338085
0.338089
0.338092
0.338095
0.338098
0.338101
0.338104
0.338107
0.338109
0.338111
0.338113
0.338115
0.338117
0.448372
0.448396
0.44842
0.448443
0.448465
0.448486
0.448506
0.448525
0.448544
0.448561
0.448578
0.448595
0.44861
0.448625
0.448639
0.448653
0.448666
0.448678
0.44869
0.448701
0.44871
0.448717
0.448723
0.448729
0.448735
0.44874
0.448744
0.448748
0.448752
0.448756
0.44876
0.448763
0.448766
0.448769
0.448771
0.448774
0.448776
0.448778
0.44878
0.448782
0.566201
0.566229
0.566255
0.56628
0.566305
0.566328
0.56635
0.566371
0.566392
0.566411
0.566429
0.566447
0.566464
0.56648
0.566495
0.566509
0.566523
0.566536
0.566548
0.56656
0.56657
0.566577
0.566584
0.56659
0.566596
0.566601
0.566606
0.56661
0.566614
0.566618
0.566622
0.566625
0.566628
0.566631
0.566634
0.566636
0.566639
0.566641
0.566643
0.566645
0.691694
0.691725
0.691755
0.691783
0.69181
0.691836
0.69186
0.691883
0.691905
0.691926
0.691946
0.691965
0.691983
0.692
0.692017
0.692032
0.692047
0.69206
0.692073
0.692086
0.692096
0.692104
0.692111
0.692117
0.692123
0.692129
0.692134
0.692138
0.692142
0.692146
0.69215
0.692154
0.692157
0.69216
0.692163
0.692165
0.692168
0.69217
0.692173
0.692175
0.825349
0.825384
0.825418
0.825449
0.825479
0.825507
0.825534
0.825559
0.825583
0.825606
0.825628
0.825648
0.825668
0.825686
0.825703
0.825719
0.825735
0.82575
0.825763
0.825776
0.825787
0.825795
0.825802
0.825809
0.825815
0.825821
0.825826
0.825831
0.825836
0.82584
0.825844
0.825847
0.82585
0.825854
0.825857
0.825859
0.825862
0.825864
0.825867
0.825869
0.967698
0.967737
0.967775
0.96781
0.967843
0.967874
0.967903
0.967931
0.967957
0.967982
0.968005
0.968027
0.968048
0.968067
0.968085
0.968103
0.968119
0.968135
0.968149
0.968163
0.968174
0.968182
0.96819
0.968197
0.968204
0.968209
0.968215
0.96822
0.968225
0.968229
0.968233
0.968237
0.96824
0.968243
0.968246
0.968249
0.968252
0.968255
0.968257
0.968259
1.11931
1.11935
1.11939
1.11943
1.11947
1.1195
1.11953
1.11956
1.11959
1.11962
1.11964
1.11967
1.11969
1.11971
1.11973
1.11975
1.11976
1.11978
1.1198
1.11981
1.11982
1.11983
1.11984
1.11985
1.11985
1.11986
1.11987
1.11987
1.11988
1.11988
1.11988
1.11989
1.11989
1.11989
1.1199
1.1199
1.1199
1.11991
1.11991
1.11991
1.28077
1.28082
1.28087
1.28091
1.28095
1.28099
1.28103
1.28106
1.28109
1.28112
1.28115
1.28117
1.28119
1.28122
1.28124
1.28126
1.28127
1.28129
1.28131
1.28132
1.28133
1.28134
1.28135
1.28136
1.28137
1.28137
1.28138
1.28138
1.28139
1.28139
1.2814
1.2814
1.28141
1.28141
1.28141
1.28142
1.28142
1.28142
1.28142
1.28143
1.45274
1.4528
1.45285
1.4529
1.45294
1.45299
1.45302
1.45306
1.45309
1.45312
1.45315
1.45318
1.45321
1.45323
1.45325
1.45327
1.45329
1.45331
1.45332
1.45334
1.45335
1.45336
1.45337
1.45338
1.45339
1.45339
1.4534
1.4534
1.45341
1.45341
1.45342
1.45342
1.45343
1.45343
1.45343
1.45344
1.45344
1.45344
1.45345
1.45345
1.6154
1.61537
1.61535
1.61532
1.6153
1.61529
1.61527
1.61525
1.61524
1.61522
1.61521
1.6152
1.61519
1.61517
1.61516
1.61516
1.61515
1.61514
1.61513
1.61512
1.61512
1.61511
1.61511
1.61511
1.6151
1.6151
1.6151
1.61509
1.61509
1.61509
1.61509
1.61509
1.61508
1.61508
1.61508
1.61508
1.61508
1.61508
1.61508
1.61508
1.766
1.76598
1.76595
1.76593
1.76591
1.76589
1.76587
1.76585
1.76584
1.76582
1.76581
1.7658
1.76579
1.76578
1.76577
1.76576
1.76575
1.76574
1.76573
1.76572
1.76572
1.76571
1.76571
1.7657
1.7657
1.7657
1.7657
1.76569
1.76569
1.76569
1.76569
1.76568
1.76568
1.76568
1.76568
1.76568
1.76568
1.76567
1.76567
1.76567
1.91661
1.91658
1.91656
1.91653
1.91651
1.91649
1.91647
1.91646
1.91644
1.91643
1.91641
1.9164
1.91639
1.91638
1.91637
1.91635
1.91635
1.91634
1.91633
1.91632
1.91631
1.91631
1.91631
1.9163
1.9163
1.91629
1.91629
1.91629
1.91629
1.91628
1.91628
1.91628
1.91628
1.91628
1.91627
1.91627
1.91627
1.91627
1.91627
1.91627
2.06721
2.06718
2.06716
2.06714
2.06712
2.0671
2.06708
2.06706
2.06704
2.06703
2.06701
2.067
2.06699
2.06697
2.06696
2.06695
2.06694
2.06693
2.06693
2.06692
2.06691
2.06691
2.0669
2.0669
2.06689
2.06689
2.06689
2.06688
2.06688
2.06688
2.06688
2.06687
2.06687
2.06687
2.06687
2.06687
2.06686
2.06686
2.06686
2.06686
2.21781
2.21779
2.21776
2.21774
2.21772
2.2177
2.21768
2.21766
2.21764
2.21763
2.21761
2.2176
2.21758
2.21757
2.21756
2.21755
2.21754
2.21753
2.21752
2.21751
2.2175
2.2175
2.21749
2.21749
2.21749
2.21748
2.21748
2.21748
2.21747
2.21747
2.21747
2.21747
2.21746
2.21746
2.21746
2.21746
2.21746
2.21745
2.21745
2.21745
2.36841
2.36839
2.36836
2.36834
2.36832
2.3683
2.36828
2.36826
2.36824
2.36822
2.36821
2.36819
2.36818
2.36817
2.36816
2.36814
2.36813
2.36812
2.36811
2.36811
2.3681
2.36809
2.36809
2.36808
2.36808
2.36807
2.36807
2.36807
2.36806
2.36806
2.36806
2.36806
2.36805
2.36805
2.36805
2.36805
2.36805
2.36804
2.36804
2.36804
2.51901
2.51899
2.51896
2.51894
2.51892
2.5189
2.51888
2.51886
2.51884
2.51882
2.51881
2.51879
2.51878
2.51876
2.51875
2.51874
2.51873
2.51872
2.51871
2.5187
2.51869
2.51868
2.51868
2.51867
2.51867
2.51866
2.51866
2.51866
2.51865
2.51865
2.51865
2.51865
2.51864
2.51864
2.51864
2.51864
2.51863
2.51863
2.51863
2.51863
2.66961
2.66959
2.66956
2.66954
2.66951
2.66949
2.66947
2.66945
2.66943
2.66942
2.6694
2.66938
2.66937
2.66936
2.66934
2.66933
2.66932
2.66931
2.6693
2.66929
2.66928
2.66927
2.66927
2.66926
2.66926
2.66925
2.66925
2.66924
2.66924
2.66924
2.66923
2.66923
2.66923
2.66923
2.66922
2.66922
2.66922
2.66922
2.66922
2.66922
2.82021
2.82018
2.82016
2.82013
2.82011
2.82009
2.82007
2.82005
2.82003
2.82001
2.81999
2.81998
2.81996
2.81995
2.81993
2.81992
2.81991
2.8199
2.81988
2.81987
2.81987
2.81986
2.81985
2.81985
2.81984
2.81984
2.81983
2.81983
2.81983
2.81982
2.81982
2.81982
2.81981
2.81981
2.81981
2.81981
2.8198
2.8198
2.8198
2.8198
2.97081
2.97078
2.97075
2.97073
2.9707
2.97068
2.97066
2.97064
2.97062
2.9706
2.97058
2.97057
2.97055
2.97054
2.97052
2.97051
2.97049
2.97048
2.97047
2.97046
2.97045
2.97044
2.97044
2.97043
2.97042
2.97042
2.97042
2.97041
2.97041
2.9704
2.9704
2.9704
2.97039
2.97039
2.97039
2.97039
2.97038
2.97038
2.97038
2.97038
3.1214
3.12137
3.12134
3.12132
3.1213
3.12127
3.12125
3.12123
3.12121
3.12119
3.12117
3.12115
3.12114
3.12112
3.12111
3.12109
3.12108
3.12106
3.12105
3.12104
3.12103
3.12102
3.12102
3.12101
3.121
3.121
3.12099
3.12099
3.12099
3.12098
3.12098
3.12098
3.12097
3.12097
3.12097
3.12096
3.12096
3.12096
3.12096
3.12095
3.27199
3.27196
3.27193
3.27191
3.27188
3.27186
3.27184
3.27182
3.2718
3.27178
3.27176
3.27174
3.27172
3.2717
3.27169
3.27167
3.27166
3.27165
3.27163
3.27162
3.27161
3.2716
3.27159
3.27159
3.27158
3.27158
3.27157
3.27157
3.27156
3.27156
3.27155
3.27155
3.27155
3.27154
3.27154
3.27154
3.27153
3.27153
3.27153
3.27153
3.42258
3.42255
3.42252
3.4225
3.42247
3.42245
3.42242
3.4224
3.42238
3.42236
3.42234
3.42232
3.4223
3.42228
3.42227
3.42225
3.42224
3.42222
3.42221
3.42219
3.42218
3.42218
3.42217
3.42216
3.42215
3.42215
3.42214
3.42214
3.42213
3.42213
3.42212
3.42212
3.42212
3.42211
3.42211
3.42211
3.4221
3.4221
3.4221
3.4221
3.57316
3.57313
3.5731
3.57308
3.57305
3.57303
3.57301
3.57298
3.57296
3.57294
3.57292
3.5729
3.57288
3.57286
3.57284
3.57283
3.57281
3.57279
3.57278
3.57277
3.57275
3.57274
3.57274
3.57273
3.57272
3.57272
3.57271
3.5727
3.5727
3.57269
3.57269
3.57269
3.57268
3.57268
3.57267
3.57267
3.57267
3.57267
3.57266
3.57266
3.72374
3.72371
3.72368
3.72366
3.72363
3.72361
3.72358
3.72356
3.72354
3.72351
3.72349
3.72347
3.72345
3.72343
3.72341
3.7234
3.72338
3.72336
3.72335
3.72333
3.72332
3.72331
3.7233
3.72329
3.72329
3.72328
3.72327
3.72327
3.72326
3.72326
3.72325
3.72325
3.72324
3.72324
3.72323
3.72323
3.72323
3.72322
3.72322
3.72322
3.87431
3.87429
3.87426
3.87423
3.87421
3.87418
3.87416
3.87413
3.87411
3.87408
3.87406
3.87404
3.87402
3.874
3.87398
3.87396
3.87394
3.87393
3.87391
3.87389
3.87388
3.87387
3.87386
3.87385
3.87384
3.87383
3.87383
3.87382
3.87382
3.87381
3.8738
3.8738
3.87379
3.87379
3.87379
3.87378
3.87378
3.87378
3.87377
3.87377
4.02488
4.02486
4.02483
4.0248
4.02477
4.02475
4.02472
4.0247
4.02467
4.02465
4.02463
4.0246
4.02458
4.02456
4.02454
4.02452
4.0245
4.02448
4.02446
4.02445
4.02443
4.02442
4.02441
4.0244
4.02439
4.02438
4.02438
4.02437
4.02436
4.02436
4.02435
4.02435
4.02434
4.02434
4.02433
4.02433
4.02432
4.02432
4.02432
4.02431
4.17545
4.17542
4.17539
4.17536
4.17534
4.17531
4.17528
4.17526
4.17523
4.17521
4.17518
4.17516
4.17514
4.17511
4.17509
4.17507
4.17505
4.17503
4.17501
4.17499
4.17498
4.17496
4.17495
4.17494
4.17493
4.17492
4.17492
4.17491
4.1749
4.1749
4.17489
4.17488
4.17488
4.17487
4.17487
4.17486
4.17486
4.17485
4.17485
4.17485
4.326
4.32597
4.32594
4.32592
4.32589
4.32586
4.32583
4.32581
4.32578
4.32576
4.32573
4.32571
4.32568
4.32566
4.32563
4.32561
4.32559
4.32557
4.32555
4.32553
4.32551
4.3255
4.32549
4.32548
4.32546
4.32546
4.32545
4.32544
4.32543
4.32542
4.32542
4.32541
4.3254
4.3254
4.32539
4.32539
4.32538
4.32538
4.32537
4.32537
4.47654
4.47652
4.47649
4.47646
4.47643
4.4764
4.47638
4.47635
4.47632
4.47629
4.47627
4.47624
4.47622
4.47619
4.47617
4.47614
4.47612
4.4761
4.47607
4.47605
4.47603
4.47602
4.47601
4.476
4.47598
4.47597
4.47596
4.47595
4.47595
4.47594
4.47593
4.47592
4.47592
4.47591
4.4759
4.4759
4.47589
4.47589
4.47588
4.47588
4.62639
4.62639
4.62639
4.62639
4.62639
4.62639
4.62639
4.62639
4.62639
4.62639
4.62639
4.62639
4.62639
4.62639
4.62639
4.62639
4.62639
4.62639
4.62639
4.62639
4.62639
4.62639
4.62639
4.62639
4.62639
4.62639
4.62639
4.62639
4.62639
4.62639
4.62639
4.62639
4.62639
4.62639
4.62639
4.62639
4.62639
4.62639
4.62639
4.62639
4.77131
4.77131
4.77131
4.77131
4.77131
4.77131
4.77131
4.77131
4.77131
4.77131
4.77131
4.77131
4.77131
4.77131
4.77131
4.77131
4.77131
4.77131
4.77131
4.77131
4.77131
4.77131
4.77131
4.77131
4.77131
4.77131
4.77131
4.77131
4.77131
4.77131
4.77131
4.77131
4.77131
4.77131
4.77131
4.77131
4.77131
4.77131
4.77131
4.77131
4.9121
4.9121
4.9121
4.9121
4.9121
4.9121
4.9121
4.9121
4.9121
4.9121
4.9121
4.9121
4.9121
4.9121
4.9121
4.9121
4.9121
4.9121
4.9121
4.9121
4.9121
4.9121
4.9121
4.9121
4.9121
4.9121
4.9121
4.9121
4.9121
4.9121
4.9121
4.9121
4.9121
4.9121
4.9121
4.9121
4.9121
4.9121
4.9121
4.9121
5.04887
5.04887
5.04887
5.04887
5.04887
5.04887
5.04887
5.04887
5.04887
5.04887
5.04887
5.04887
5.04887
5.04887
5.04887
5.04887
5.04887
5.04887
5.04887
5.04887
5.04887
5.04887
5.04887
5.04887
5.04887
5.04887
5.04887
5.04887
5.04887
5.04887
5.04887
5.04887
5.04887
5.04887
5.04887
5.04887
5.04887
5.04887
5.04887
5.04887
5.18173
5.18173
5.18173
5.18173
5.18173
5.18173
5.18173
5.18173
5.18173
5.18173
5.18173
5.18173
5.18173
5.18173
5.18173
5.18173
5.18173
5.18173
5.18173
5.18173
5.18173
5.18173
5.18173
5.18173
5.18173
5.18173
5.18173
5.18173
5.18173
5.18173
5.18173
5.18173
5.18173
5.18173
5.18173
5.18173
5.18173
5.18173
5.18173
5.18173
5.31081
5.31081
5.31081
5.31081
5.31081
5.31081
5.31081
5.31081
5.31081
5.31081
5.31081
5.31081
5.31081
5.31081
5.31081
5.31081
5.31081
5.31081
5.31081
5.31081
5.31081
5.31081
5.31081
5.31081
5.31081
5.31081
5.31081
5.31081
5.31081
5.31081
5.31081
5.31081
5.31081
5.31081
5.31081
5.31081
5.31081
5.31081
5.31081
5.31081
5.43619
5.43619
5.43619
5.43619
5.43619
5.43619
5.43619
5.43619
5.43619
5.43619
5.43619
5.43619
5.43619
5.43619
5.43619
5.43619
5.43619
5.43619
5.43619
5.43619
5.43619
5.43619
5.43619
5.43619
5.43619
5.43619
5.43619
5.43619
5.43619
5.43619
5.43619
5.43619
5.43619
5.43619
5.43619
5.43619
5.43619
5.43619
5.43619
5.43619
5.558
5.558
5.558
5.558
5.558
5.558
5.558
5.558
5.558
5.558
5.558
5.558
5.558
5.558
5.558
5.558
5.558
5.558
5.558
5.558
5.558
5.558
5.558
5.558
5.558
5.558
5.558
5.558
5.558
5.558
5.558
5.558
5.558
5.558
5.558
5.558
5.558
5.558
5.558
5.558
5.67633
5.67633
5.67633
5.67633
5.67633
5.67633
5.67633
5.67633
5.67633
5.67633
5.67633
5.67633
5.67633
5.67633
5.67633
5.67633
5.67633
5.67633
5.67633
5.67633
5.67633
5.67633
5.67633
5.67633
5.67633
5.67633
5.67633
5.67633
5.67633
5.67633
5.67633
5.67633
5.67633
5.67633
5.67633
5.67633
5.67633
5.67633
5.67633
5.67633
5.79129
5.79129
5.79129
5.79129
5.79129
5.79129
5.79129
5.79129
5.79129
5.79129
5.79129
5.79129
5.79129
5.79129
5.79129
5.79129
5.79129
5.79129
5.79129
5.79129
5.79129
5.79129
5.79129
5.79129
5.79129
5.79129
5.79129
5.79129
5.79129
5.79129
5.79129
5.79129
5.79129
5.79129
5.79129
5.79129
5.79129
5.79129
5.79129
5.79129
5.90296
5.90296
5.90296
5.90296
5.90296
5.90296
5.90296
5.90296
5.90296
5.90296
5.90296
5.90296
5.90296
5.90296
5.90296
5.90296
5.90296
5.90296
5.90296
5.90296
5.90296
5.90296
5.90296
5.90296
5.90296
5.90296
5.90296
5.90296
5.90296
5.90296
5.90296
5.90296
5.90296
5.90296
5.90296
5.90296
5.90296
5.90296
5.90296
5.90296
6.01144
6.01144
6.01144
6.01144
6.01144
6.01144
6.01144
6.01144
6.01144
6.01144
6.01144
6.01144
6.01144
6.01144
6.01144
6.01144
6.01144
6.01144
6.01144
6.01144
6.01144
6.01144
6.01144
6.01144
6.01144
6.01144
6.01144
6.01144
6.01144
6.01144
6.01144
6.01144
6.01144
6.01144
6.01144
6.01144
6.01144
6.01144
6.01144
6.01144
6.11683
6.11683
6.11683
6.11683
6.11683
6.11683
6.11683
6.11683
6.11683
6.11683
6.11683
6.11683
6.11683
6.11683
6.11683
6.11683
6.11683
6.11683
6.11683
6.11683
6.11683
6.11683
6.11683
6.11683
6.11683
6.11683
6.11683
6.11683
6.11683
6.11683
6.11683
6.11683
6.11683
6.11683
6.11683
6.11683
6.11683
6.11683
6.11683
6.11683
6.21921
6.21921
6.21921
6.21921
6.21921
6.21921
6.21921
6.21921
6.21921
6.21921
6.21921
6.21921
6.21921
6.21921
6.21921
6.21921
6.21921
6.21921
6.21921
6.21921
6.21921
6.21921
6.21921
6.21921
6.21921
6.21921
6.21921
6.21921
6.21921
6.21921
6.21921
6.21921
6.21921
6.21921
6.21921
6.21921
6.21921
6.21921
6.21921
6.21921
6.31867
6.31867
6.31867
6.31867
6.31867
6.31867
6.31867
6.31867
6.31867
6.31867
6.31867
6.31867
6.31867
6.31867
6.31867
6.31867
6.31867
6.31867
6.31867
6.31867
6.31867
6.31867
6.31867
6.31867
6.31867
6.31867
6.31867
6.31867
6.31867
6.31867
6.31867
6.31867
6.31867
6.31867
6.31867
6.31867
6.31867
6.31867
6.31867
6.31867
6.39045
6.39045
6.39045
6.39045
6.39045
6.39045
6.39045
6.39045
6.39045
6.39045
6.39045
6.39045
6.39045
6.39045
6.39045
6.39045
6.39045
6.39045
6.39045
6.39045
6.39045
6.39045
6.39045
6.39045
6.39045
6.39045
6.39045
6.39045
6.39045
6.39045
6.39045
6.39045
6.39045
6.39045
6.39045
6.39045
6.39045
6.39045
6.39045
6.39045
6.43685
6.43685
6.43685
6.43685
6.43685
6.43685
6.43685
6.43685
6.43685
6.43685
6.43685
6.43685
6.43685
6.43685
6.43685
6.43685
6.43685
6.43685
6.43685
6.43685
6.43685
6.43685
6.43685
6.43685
6.43685
6.43685
6.43685
6.43685
6.43685
6.43685
6.43685
6.43685
6.43685
6.43685
6.43685
6.43685
6.43685
6.43685
6.43685
6.43685
6.48498
6.48498
6.48498
6.48498
6.48498
6.48498
6.48498
6.48498
6.48498
6.48498
6.48498
6.48498
6.48498
6.48498
6.48498
6.48498
6.48498
6.48498
6.48498
6.48498
6.48498
6.48498
6.48498
6.48498
6.48498
6.48498
6.48498
6.48498
6.48498
6.48498
6.48498
6.48498
6.48498
6.48498
6.48498
6.48498
6.48498
6.48498
6.48498
6.48498
6.53489
6.53489
6.53489
6.53489
6.53489
6.53489
6.53489
6.53489
6.53489
6.53489
6.53489
6.53489
6.53489
6.53489
6.53489
6.53489
6.53489
6.53489
6.53489
6.53489
6.53489
6.53489
6.53489
6.53489
6.53489
6.53489
6.53489
6.53489
6.53489
6.53489
6.53489
6.53489
6.53489
6.53489
6.53489
6.53489
6.53489
6.53489
6.53489
6.53489
6.58665
6.58665
6.58665
6.58665
6.58665
6.58665
6.58665
6.58665
6.58665
6.58665
6.58665
6.58665
6.58665
6.58665
6.58665
6.58665
6.58665
6.58665
6.58665
6.58665
6.58665
6.58665
6.58665
6.58665
6.58665
6.58665
6.58665
6.58665
6.58665
6.58665
6.58665
6.58665
6.58665
6.58665
6.58665
6.58665
6.58665
6.58665
6.58665
6.58665
6.64034
6.64034
6.64034
6.64034
6.64034
6.64034
6.64034
6.64034
6.64034
6.64034
6.64034
6.64034
6.64034
6.64034
6.64034
6.64034
6.64034
6.64034
6.64034
6.64034
6.64034
6.64034
6.64034
6.64034
6.64034
6.64034
6.64034
6.64034
6.64034
6.64034
6.64034
6.64034
6.64034
6.64034
6.64034
6.64034
6.64034
6.64034
6.64034
6.64034
1.61548
1.76609
1.91669
2.0673
2.21791
2.36852
2.51912
2.66973
2.82033
2.97094
3.12154
3.27214
3.42274
3.57334
3.72394
3.87453
4.02513
4.17572
4.32631
4.47689
1.62513
1.64445
1.66433
1.68476
1.70578
1.7274
1.74963
1.7725
1.79602
1.82021
1.84509
1.87068
1.897
1.92407
1.95192
1.98056
2.01001
2.04031
2.07147
2.10352
2.13649
2.17039
2.20527
2.24114
2.27804
2.31599
2.35502
2.39517
2.43646
2.47893
2.52262
2.56755
2.61377
2.6613
2.7102
2.76049
2.81221
2.86542
2.92014
2.97642
1.77533
1.79382
1.81284
1.83239
1.85251
1.87319
1.89447
1.91635
1.93886
1.962
1.98581
2.0103
2.03548
2.06138
2.08803
2.11543
2.14361
2.1726
2.20242
2.23309
2.26463
2.29707
2.33044
2.36477
2.40007
2.43638
2.47373
2.51214
2.55165
2.59229
2.63409
2.67709
2.72131
2.76679
2.81358
2.8617
2.91119
2.9621
3.01446
3.06831
1.92553
1.94319
1.96135
1.98002
1.99923
2.01898
2.0393
2.0602
2.08169
2.10379
2.12653
2.14991
2.17396
2.19869
2.22413
2.2503
2.27721
2.30489
2.33337
2.36265
2.39277
2.42375
2.45562
2.48839
2.5221
2.55678
2.59244
2.62912
2.66685
2.70566
2.74557
2.78663
2.82885
2.87228
2.91696
2.96291
3.01017
3.05878
3.10877
3.1602
2.07573
2.09255
2.10986
2.12765
2.14595
2.16478
2.18413
2.20404
2.22452
2.24558
2.26724
2.28952
2.31243
2.336
2.36024
2.38517
2.41081
2.43719
2.46431
2.49222
2.52091
2.55043
2.58079
2.61202
2.64414
2.67717
2.71115
2.7461
2.78205
2.81902
2.85705
2.89616
2.93639
2.97777
3.02034
3.06411
3.10914
3.15546
3.20309
3.25209
2.22592
2.24192
2.25837
2.27528
2.29268
2.31057
2.32897
2.34789
2.36735
2.38737
2.40796
2.42913
2.45091
2.47331
2.49635
2.52004
2.54441
2.56948
2.59526
2.62178
2.64906
2.67711
2.70596
2.73564
2.76617
2.79757
2.82986
2.86308
2.89724
2.93238
2.96852
3.0057
3.04394
3.08326
3.12372
3.16532
3.20812
3.25214
3.29741
3.34397
2.37612
2.39128
2.40687
2.42291
2.4394
2.45636
2.4738
2.49174
2.51019
2.52916
2.54867
2.56874
2.58939
2.61062
2.63245
2.65491
2.67801
2.70177
2.72621
2.75135
2.7772
2.80379
2.83114
2.85927
2.8882
2.91796
2.94857
2.98005
3.01244
3.04574
3.08
3.11524
3.15148
3.18875
3.2271
3.26653
3.30709
3.34881
3.39173
3.43586
2.52631
2.54065
2.55538
2.57054
2.58612
2.60215
2.61863
2.63558
2.65302
2.67095
2.68939
2.70835
2.72786
2.74792
2.76856
2.78978
2.81161
2.83407
2.85716
2.88091
2.90534
2.93047
2.95631
2.98289
3.01023
3.03836
3.06728
3.09703
3.12763
3.1591
3.19148
3.22477
3.25902
3.29424
3.33048
3.36774
3.40607
3.44549
3.48604
3.52775
2.67651
2.69001
2.70389
2.71817
2.73284
2.74794
2.76346
2.77943
2.79585
2.81274
2.8301
2.84797
2.86634
2.88523
2.90467
2.92465
2.94521
2.96636
2.98811
3.01047
3.03348
3.05715
3.08148
3.10652
3.13227
3.15875
3.18599
3.21401
3.24283
3.27247
3.30295
3.33431
3.36656
3.39973
3.43385
3.46895
3.50505
3.54217
3.58036
3.61964
2.8267
2.83937
2.8524
2.86579
2.87957
2.89373
2.9083
2.92327
2.93868
2.95452
2.97082
2.98758
3.00481
3.02254
3.04077
3.05953
3.07881
3.09865
3.11905
3.14004
3.16162
3.18382
3.20666
3.23014
3.2543
3.27915
3.3047
3.33098
3.35802
3.38583
3.41443
3.44384
3.4741
3.50522
3.53723
3.57016
3.60402
3.63885
3.67468
3.71153
2.97689
2.98873
3.0009
3.01342
3.02629
3.03952
3.05313
3.06712
3.08151
3.09631
3.11153
3.12719
3.14329
3.15985
3.17688
3.1944
3.21241
3.23094
3.25
3.2696
3.28976
3.3105
3.33183
3.35377
3.37633
3.39954
3.42341
3.44796
3.47321
3.49919
3.5259
3.55338
3.58164
3.61071
3.64061
3.67137
3.703
3.73553
3.76899
3.80341
3.12709
3.13809
3.14941
3.16104
3.17301
3.18531
3.19796
3.21096
3.22434
3.2381
3.25225
3.2668
3.28176
3.29716
3.31299
3.32927
3.34601
3.36323
3.38095
3.39917
3.41791
3.43718
3.457
3.47739
3.49836
3.51993
3.54212
3.56494
3.58841
3.61255
3.63738
3.66292
3.68918
3.7162
3.74399
3.77257
3.80197
3.83221
3.86331
3.8953
3.27728
3.28745
3.29791
3.30867
3.31973
3.3311
3.34279
3.35481
3.36717
3.37989
3.39296
3.40641
3.42024
3.43446
3.44909
3.46414
3.47961
3.49553
3.5119
3.52873
3.54605
3.56386
3.58218
3.60102
3.6204
3.64033
3.66083
3.68191
3.7036
3.72591
3.74885
3.77245
3.79673
3.82169
3.84737
3.87378
3.90095
3.92889
3.95763
3.98719
3.42747
3.43681
3.44642
3.45629
3.46645
3.47688
3.48762
3.49865
3.51
3.52167
3.53368
3.54602
3.55871
3.57177
3.5852
3.59901
3.61321
3.62782
3.64284
3.65829
3.67419
3.69054
3.70735
3.72464
3.74243
3.76072
3.77954
3.79889
3.8188
3.83927
3.86033
3.88199
3.90427
3.92718
3.95075
3.97499
3.99992
4.02557
4.05194
4.07907
3.57765
3.58617
3.59492
3.60392
3.61317
3.62267
3.63245
3.6425
3.65283
3.66346
3.67439
3.68563
3.69719
3.70908
3.7213
3.73388
3.74681
3.76011
3.77379
3.78786
3.80233
3.81721
3.83252
3.84827
3.86446
3.88112
3.89825
3.91587
3.93399
3.95263
3.9718
3.99152
4.01181
4.03267
4.05413
4.0762
4.0989
4.12225
4.14626
4.17096
3.72784
3.73553
3.74342
3.75154
3.75988
3.76846
3.77728
3.78634
3.79566
3.80525
3.8151
3.82524
3.83566
3.84638
3.85741
3.86875
3.88041
3.8924
3.90474
3.91742
3.93047
3.94389
3.95769
3.97189
3.98649
4.00151
4.01696
4.03284
4.04918
4.06599
4.08328
4.10106
4.11935
4.13816
4.15751
4.1774
4.19787
4.21892
4.24058
4.26285
3.87802
3.88488
3.89193
3.89916
3.9066
3.91425
3.9221
3.93018
3.93849
3.94703
3.95582
3.96485
3.97414
3.98369
3.99351
4.00362
4.01401
4.02469
4.03568
4.04699
4.05861
4.07057
4.08287
4.09551
4.10852
4.1219
4.13567
4.14982
4.16438
4.17935
4.19475
4.2106
4.22689
4.24365
4.26088
4.27861
4.29685
4.3156
4.33489
4.35473
4.0282
4.03423
4.04042
4.04678
4.05332
4.06003
4.06693
4.07403
4.08132
4.08882
4.09653
4.10446
4.11261
4.121
4.12962
4.13848
4.1476
4.15698
4.16663
4.17655
4.18675
4.19724
4.20804
4.21914
4.23055
4.2423
4.25437
4.2668
4.27957
4.29271
4.30623
4.32013
4.33443
4.34913
4.36426
4.37982
4.39582
4.41228
4.42921
4.44662
4.17838
4.18358
4.18892
4.1944
4.20003
4.20582
4.21176
4.21787
4.22415
4.2306
4.23724
4.24407
4.25108
4.2583
4.26572
4.27335
4.2812
4.28927
4.29757
4.30611
4.31489
4.32392
4.33321
4.34276
4.35259
4.36269
4.37308
4.38377
4.39477
4.40607
4.4177
4.42967
4.44197
4.45462
4.46764
4.48103
4.4948
4.50896
4.52352
4.53851
4.32856
4.33293
4.33742
4.34202
4.34675
4.3516
4.35659
4.36171
4.36698
4.37239
4.37795
4.38368
4.38956
4.39561
4.40183
4.40822
4.4148
4.42156
4.42852
4.43567
4.44303
4.4506
4.45838
4.46638
4.47462
4.48308
4.49179
4.50075
4.50996
4.51943
4.52918
4.5392
4.54951
4.56011
4.57102
4.58223
4.59377
4.60564
4.61784
4.63039
4.47873
4.48228
4.48591
4.48964
4.49346
4.49738
4.50141
4.50555
4.5098
4.51417
4.51867
4.52328
4.52803
4.53291
4.53793
4.54309
4.5484
4.55385
4.55947
4.56524
4.57117
4.57727
4.58355
4.59001
4.59665
4.60348
4.6105
4.61772
4.62515
4.63279
4.64065
4.64874
4.65705
4.6656
4.67439
4.68344
4.69274
4.70231
4.71215
4.72228
4.60739
4.61036
4.61342
4.61657
4.6198
4.62313
4.62655
4.63007
4.63369
4.63742
4.64125
4.64519
4.64924
4.65341
4.6577
4.66211
4.66665
4.67132
4.67612
4.68105
4.68613
4.69136
4.69673
4.70226
4.70794
4.71379
4.7198
4.72599
4.73235
4.73889
4.74562
4.75255
4.75967
4.76699
4.77453
4.78228
4.79025
4.79845
4.80688
4.81555
4.71335
4.71616
4.71906
4.72203
4.72509
4.72824
4.73148
4.73481
4.73823
4.74176
4.74538
4.74911
4.75294
4.75689
4.76094
4.76512
4.76941
4.77382
4.77836
4.78303
4.78784
4.79278
4.79786
4.80309
4.80847
4.814
4.81969
4.82554
4.83156
4.83775
4.84411
4.85066
4.8574
4.86433
4.87145
4.87879
4.88632
4.89408
4.90206
4.91026
4.81931
4.82196
4.82469
4.8275
4.83038
4.83335
4.8364
4.83954
4.84277
4.84609
4.84951
4.85303
4.85664
4.86036
4.86418
4.86812
4.87217
4.87633
4.88061
4.88501
4.88954
4.8942
4.89899
4.90392
4.90899
4.91421
4.91957
4.92509
4.93076
4.9366
4.9426
4.94878
4.95513
4.96166
4.96838
4.97529
4.9824
4.98971
4.99724
5.00497
4.92528
4.92777
4.93033
4.93296
4.93567
4.93846
4.94133
4.94428
4.94731
4.95043
4.95364
4.95694
4.96034
4.96383
4.96743
4.97112
4.97492
4.97883
4.98286
4.98699
4.99125
4.99562
5.00013
5.00476
5.00952
5.01442
5.01946
5.02464
5.02997
5.03545
5.04109
5.04689
5.05286
5.059
5.06531
5.0718
5.07848
5.08535
5.09241
5.09968
5.03124
5.03357
5.03596
5.03843
5.04096
5.04357
5.04625
5.04901
5.05185
5.05477
5.05777
5.06086
5.06404
5.06731
5.07067
5.07413
5.07768
5.08134
5.0851
5.08897
5.09295
5.09705
5.10126
5.10559
5.11004
5.11463
5.11934
5.12419
5.12918
5.13431
5.13958
5.14501
5.15059
5.15633
5.16224
5.16831
5.17456
5.18098
5.18759
5.19439
5.1372
5.13937
5.1416
5.14389
5.14625
5.14868
5.15118
5.15375
5.15639
5.15911
5.1619
5.16478
5.16774
5.17078
5.17391
5.17713
5.18044
5.18385
5.18735
5.19095
5.19466
5.19847
5.20239
5.20642
5.21057
5.21484
5.21923
5.22374
5.22838
5.23316
5.23807
5.24312
5.24832
5.25366
5.25916
5.26482
5.27063
5.27662
5.28277
5.2891
5.24316
5.24517
5.24723
5.24936
5.25154
5.25379
5.2561
5.25848
5.26093
5.26345
5.26604
5.2687
5.27144
5.27425
5.27715
5.28013
5.2832
5.28635
5.28959
5.29293
5.29636
5.29989
5.30352
5.30726
5.3111
5.31505
5.31911
5.32329
5.32759
5.33201
5.33656
5.34124
5.34605
5.351
5.35609
5.36132
5.36671
5.37225
5.37795
5.38381
5.34912
5.35097
5.35287
5.35482
5.35683
5.3589
5.36103
5.36322
5.36547
5.36778
5.37017
5.37262
5.37514
5.37773
5.38039
5.38314
5.38596
5.38886
5.39184
5.39491
5.39807
5.40131
5.40465
5.40809
5.41162
5.41526
5.419
5.42284
5.4268
5.43086
5.43505
5.43935
5.44378
5.44833
5.45302
5.45783
5.46279
5.46788
5.47313
5.47852
5.45508
5.45677
5.4585
5.46029
5.46212
5.46401
5.46596
5.46795
5.47001
5.47212
5.4743
5.47653
5.47883
5.4812
5.48364
5.48614
5.48871
5.49136
5.49409
5.49689
5.49977
5.50274
5.50579
5.50892
5.51215
5.51547
5.51888
5.52239
5.526
5.52972
5.53354
5.53747
5.54151
5.54567
5.54994
5.55434
5.55886
5.56352
5.5683
5.57323
5.56104
5.56257
5.56414
5.56575
5.56741
5.56912
5.57088
5.57269
5.57455
5.57646
5.57843
5.58045
5.58253
5.58467
5.58688
5.58914
5.59147
5.59387
5.59633
5.59887
5.60148
5.60416
5.60692
5.60976
5.61268
5.61568
5.61877
5.62194
5.62521
5.62857
5.63203
5.63558
5.63924
5.643
5.64687
5.65085
5.65494
5.65915
5.66348
5.66794
5.667
5.66837
5.66977
5.67122
5.6727
5.67423
5.67581
5.67742
5.67909
5.6808
5.68256
5.68437
5.68623
5.68815
5.69012
5.69215
5.69423
5.69637
5.69858
5.70085
5.70318
5.70558
5.70805
5.71059
5.7132
5.71589
5.71865
5.72149
5.72442
5.72742
5.73052
5.7337
5.73697
5.74033
5.7438
5.74736
5.75102
5.75479
5.75866
5.76265
5.77297
5.77417
5.77541
5.77668
5.778
5.77934
5.78073
5.78216
5.78363
5.78514
5.78669
5.78829
5.78993
5.79162
5.79336
5.79515
5.79699
5.79888
5.80083
5.80283
5.80489
5.807
5.80918
5.81142
5.81373
5.8161
5.81854
5.82104
5.82362
5.82628
5.82901
5.83181
5.8347
5.83767
5.84072
5.84386
5.8471
5.85042
5.85384
5.85735
5.87893
5.87997
5.88104
5.88215
5.88329
5.88445
5.88566
5.88689
5.88817
5.88948
5.89082
5.89221
5.89363
5.8951
5.8966
5.89815
5.89975
5.90139
5.90307
5.90481
5.90659
5.90843
5.91032
5.91226
5.91425
5.91631
5.91842
5.92059
5.92283
5.92513
5.92749
5.92993
5.93243
5.935
5.93765
5.94037
5.94317
5.94605
5.94902
5.95206
5.98489
5.98577
5.98668
5.98761
5.98858
5.98957
5.99058
5.99163
5.99271
5.99381
5.99495
5.99612
5.99733
5.99857
5.99984
6.00116
6.0025
6.00389
6.00532
6.00679
6.0083
6.00985
6.01145
6.01309
6.01478
6.01652
6.01831
6.02015
6.02204
6.02398
6.02598
6.02804
6.03016
6.03234
6.03458
6.03688
6.03925
6.04169
6.04419
6.04677
6.09085
6.09157
6.09231
6.09308
6.09387
6.09468
6.09551
6.09636
6.09725
6.09815
6.09908
6.10004
6.10103
6.10204
6.10309
6.10416
6.10526
6.1064
6.10757
6.10877
6.11
6.11127
6.11258
6.11392
6.11531
6.11673
6.11819
6.1197
6.12124
6.12284
6.12447
6.12616
6.12789
6.12967
6.1315
6.13339
6.13533
6.13732
6.13937
6.14148
6.19681
6.19737
6.19795
6.19855
6.19916
6.19979
6.20043
6.2011
6.20179
6.20249
6.20321
6.20396
6.20473
6.20552
6.20633
6.20716
6.20802
6.2089
6.20981
6.21075
6.21171
6.21269
6.21371
6.21476
6.21583
6.21694
6.21808
6.21925
6.22045
6.22169
6.22296
6.22427
6.22562
6.227
6.22843
6.2299
6.2314
6.23296
6.23455
6.23619
6.30277
6.30317
6.30359
6.30401
6.30445
6.3049
6.30536
6.30584
6.30632
6.30683
6.30735
6.30788
6.30843
6.30899
6.30957
6.31017
6.31078
6.31141
6.31206
6.31273
6.31341
6.31412
6.31484
6.31559
6.31636
6.31715
6.31796
6.3188
6.31966
6.32054
6.32145
6.32239
6.32335
6.32434
6.32536
6.3264
6.32748
6.32859
6.32973
6.3309
6.40873
6.40897
6.40922
6.40948
6.40974
6.41001
6.41029
6.41057
6.41086
6.41117
6.41148
6.4118
6.41213
6.41246
6.41281
6.41317
6.41354
6.41392
6.4143
6.4147
6.41512
6.41554
6.41598