/*--------------------------------*- C++ -*----------------------------------*\
| =========                 |                                                 |
| \\      /  F ield         | OpenFOAM: The Open Source CFD Toolbox           |
|  \\    /   O peration     | Version:  2312                                  |
|   \\  /    A nd           | Website:  www.openfoam.com                      |
|    \\/     M anipulation  |                                                 |
\*---------------------------------------------------------------------------*/
FoamFile
{
    version     2.0;
    format      ascii;
    arch        "LSB;label=32;scalar=64";
    class       volScalarField;
    location    "0";
    object      Cz;
}
// * * * * * * * * * * * * * * * * * * * * * * * * * * * * * * * * * * * * * //

dimensions      [0 1 0 0 0 0 0];

internalField   nonuniform List<scalar> 
3780
(
0
2.36858e-20
-7.4258e-19
2.05496e-18
1.25894e-18
5.38712e-19
7.23936e-19
-2.57974e-18
1.59266e-18
6.89955e-19
0
1.68759e-18
1.88193e-19
9.1515e-19
1.84468e-20
-7.42784e-19
1.3661e-18
3.65712e-18
-1.838e-20
-2.05837e-18
0
-1.30651e-19
2.90286e-20
-1.24762e-18
-2.25458e-18
3.70133e-20
-4.02215e-18
1.51814e-18
-4.49814e-18
1.18695e-18
-3.69149e-18
0
-3.52775e-18
3.16768e-18
-2.38816e-18
1.2354e-18
-3.71001e-20
-1.20922e-18
-4.21176e-18
-6.21176e-18
-3.71031e-19
1.98714e-19
2.67213e-18
6.58924e-19
-9.80362e-21
-1.97983e-18
9.1326e-19
1.4659e-18
1.35254e-18
-7.28151e-19
1.17825e-18
-9.87457e-19
1.06608e-18
7.732e-19
-7.87414e-19
-1.00451e-18
3.76893e-18
-2.49794e-18
-7.15208e-19
-3.54982e-18
3.40898e-18
1.78164e-19
8.29813e-19
2.03527e-18
-3.92626e-19
-3.96702e-18
2.97348e-18
-6.26104e-18
-2.80453e-19
-2.14211e-19
0
-4.00732e-18
2.28074e-18
-2.78677e-20
4.26022e-18
4.52732e-18
2.005e-18
3.06276e-19
8.02901e-18
-4.50327e-18
0
-6.0179e-19
-2.25671e-18
-4.96192e-19
4.49085e-19
-4.697e-20
-1.54831e-18
1.39363e-18
-4.89099e-19
-1.55921e-19
2.25851e-18
-2.65707e-18
1.30758e-19
-3.65596e-18
2.57683e-18
-4.00575e-19
1.1226e-18
3.55262e-18
0
1.05711e-19
-5.28675e-18
1.80706e-18
4.49563e-18
0
-1.48624e-19
-2.63474e-19
-3.51535e-18
-2.34579e-19
-7.53511e-18
4.29654e-18
-4.3997e-19
-3.64082e-18
-2.75521e-19
4.97869e-19
1.77282e-18
-2.35727e-18
-1.74548e-18
0
-8.9971e-18
-5.70439e-18
-2.98373e-18
-5.68802e-20
5.88041e-19
1.53773e-18
7.61589e-19
-1.90792e-18
-3.72229e-20
-2.43457e-19
1.12576e-18
1.94377e-20
-1.94156e-20
-7.34813e-19
0
1.43892e-18
8.64341e-21
3.97967e-18
2.54413e-18
1.53172e-18
1.30144e-18
2.55199e-18
0
3.24839e-18
-1.46039e-19
1.70858e-18
3.88048e-20
-3.03863e-18
1.13316e-18
-1.83832e-18
-4.87584e-19
-2.98521e-18
4.54881e-19
-7.68509e-18
-3.08899e-18
1.88506e-18
3.89013e-20
3.4995e-18
0
-3.68649e-19
1.83349e-18
-1.5439e-18
-1.05543e-18
-1.02335e-18
4.08416e-19
-3.7179e-20
-8.62678e-20
-1.41126e-18
-8.685e-20
1.452e-18
1.87506e-18
-1.94134e-20
1.00281e-18
1.33104e-19
0
1.35882e-18
3.99806e-18
-2.646e-18
1.6744e-18
-1.20159e-18
2.17701e-18
-1.05208e-18
1.93532e-20
1.52202e-18
2.2979e-18
-2.60366e-18
-3.72534e-18
3.87898e-20
-4.90296e-18
-2.7533e-18
-3.77185e-18
-9.57273e-18
5.37846e-18
2.89541e-18
1.70401e-19
2.14282e-18
-3.13333e-18
5.21028e-18
0
-1.87676e-19
8.54635e-18
3.26175e-19
-5.8769e-20
2.86413e-18
-7.36566e-19
5.49205e-21
4.68981e-20
1.15797e-18
8.92679e-19
1.21627e-18
2.48014e-19
-7.78756e-19
-1.93671e-20
-1.22115e-18
-1.34349e-19
1.93085e-20
0
-9.33003e-20
-5.29777e-18
2.23232e-18
6.58915e-19
2.86474e-18
0
2.54885e-18
-4.47819e-18
-2.62867e-19
0
0
2.64154e-18
-2.14765e-18
4.94073e-18
4.07299e-18
2.89012e-19
-1.14625e-17
2.09145e-18
-3.88483e-20
1.83267e-18
-6.18612e-18
1.4706e-18
2.33183e-18
-1.17286e-17
2.4197e-18
-1.2359e-18
0
1.01896e-19
1.92174e-18
-1.06498e-18
-1.02279e-18
0
6.35862e-19
-1.93856e-20
1.16875e-18
-1.04256e-18
8.5554e-19
-1.22573e-19
-1.51477e-18
-4.15217e-18
2.77765e-18
2.50028e-18
1.3633e-18
-2.05513e-19
3.10864e-18
3.24432e-19
1.66023e-18
1.91273e-18
-5.81353e-18
3.53735e-19
-3.70074e-18
1.57338e-19
3.69714e-19
-3.01667e-19
-8.13752e-20
3.98107e-18
-2.32168e-18
-1.72575e-18
-3.37314e-18
-5.59151e-18
-6.57638e-19
-8.47148e-19
3.14437e-18
-4.21393e-18
9.68399e-18
1.47679e-18
-9.08128e-20
1.23379e-18
-1.6517e-18
-1.05219e-18
-2.5358e-18
-1.4233e-18
2.01125e-18
2.27617e-18
2.73114e-19
-9.91175e-19
6.92149e-19
-2.05453e-19
2.67735e-18
-1.01103e-18
-1.923e-20
-1.73554e-18
-3.58982e-18
-1.16989e-18
-2.4219e-19
4.47858e-19
1.80055e-18
3.04802e-18
-1.79232e-18
-1.96103e-18
-1.53264e-18
-2.93604e-19
-3.57323e-18
2.76236e-19
3.21435e-18
-6.76146e-18
-4.70656e-19
-6.05593e-18
2.26217e-19
3.70791e-18
2.77097e-18
6.04631e-18
-6.14459e-18
-4.0262e-18
-3.09836e-18
1.84503e-18
0
-5.57508e-19
-1.45676e-20
9.14331e-19
-9.47001e-19
-1.3753e-18
-2.31546e-18
1.63561e-19
0
4.57391e-19
-2.08285e-19
0
-3.42542e-18
1.04564e-18
4.42114e-18
2.39708e-19
1.17281e-18
1.21303e-18
3.49417e-18
1.83202e-18
2.9681e-18
5.59303e-19
2.91307e-18
-3.78467e-18
-3.62785e-19
4.73425e-19
2.62361e-18
2.7955e-18
-2.59638e-18
5.17514e-18
-2.54286e-18
3.04088e-18
-2.72613e-18
-5.48845e-18
-2.7702e-18
-3.88093e-20
-2.39335e-19
3.26061e-18
-2.61732e-18
5.82155e-19
-7.66663e-20
1.74474e-19
1.362e-19
-2.12773e-18
-4.77886e-19
-2.82734e-18
9.55412e-20
-1.90279e-18
3.04632e-18
5.25087e-18
7.39477e-20
-1.68921e-19
5.40121e-19
-4.56213e-19
1.91865e-20
-4.01013e-18
-4.36746e-19
2.31695e-18
0
-2.47007e-18
0
-2.23766e-18
1.99379e-18
-7.9272e-18
-8.86519e-18
-7.14199e-18
1.8324e-18
-4.18882e-18
-9.61842e-18
4.27182e-18
4.051e-18
2.1405e-18
-5.11189e-18
-2.13998e-18
1.09069e-17
4.74635e-18
-5.10354e-18
2.92074e-18
-4.41755e-18
4.68769e-20
-9.19649e-19
-2.38476e-18
8.66537e-19
-6.80003e-19
0
-2.8141e-18
1.01675e-18
9.03551e-19
1.49867e-18
2.45834e-18
2.89968e-19
-7.38934e-20
8.00603e-19
2.0249e-18
-1.29265e-18
-6.87337e-18
-2.03977e-18
-3.82338e-19
4.83119e-18
-1.71786e-18
-2.02344e-18
-3.70556e-19
-6.25024e-18
-1.24977e-19
6.1477e-18
2.04185e-18
-2.92549e-18
5.9723e-18
0
3.85507e-18
-1.32397e-17
-3.17179e-18
4.13244e-19
-1.72191e-18
2.65694e-18
1.1438e-17
2.5669e-18
-4.23481e-19
-7.87378e-18
-1.79086e-18
1.38363e-19
1.35903e-18
6.80902e-19
1.22408e-19
0
2.19197e-18
-8.3987e-19
2.81345e-18
-3.71478e-18
1.0273e-18
1.87864e-18
0
1.54647e-18
2.65517e-19
9.02772e-19
5.8959e-18
0
-6.83594e-18
-5.33187e-18
2.05849e-18
-3.85153e-20
-1.53583e-18
1.36733e-18
-1.14499e-18
-1.42953e-18
-3.34896e-18
1.27186e-18
-4.72787e-18
-1.73242e-19
-3.12076e-18
-3.85626e-18
-2.70705e-18
6.26855e-18
-3.81111e-18
6.28355e-18
-9.08125e-18
-3.49005e-18
0
3.71844e-18
-5.30661e-19
-4.455e-19
3.34769e-19
-1.89935e-19
1.92227e-18
1.83547e-18
0
3.42561e-18
-1.43414e-19
4.79272e-18
-1.59565e-18
-1.12579e-18
-3.0798e-18
-1.58543e-18
-1.15879e-19
-1.52586e-18
5.86033e-18
-4.18632e-18
3.77554e-18
5.30235e-18
1.67781e-18
3.99783e-20
-2.13018e-18
3.23402e-19
6.46125e-18
3.6766e-18
-2.46151e-18
2.51846e-19
-1.81142e-18
4.80371e-18
6.46053e-18
-1.01152e-17
1.50461e-17
2.48567e-19
2.90905e-18
3.5652e-18
4.42355e-18
7.46634e-18
2.91146e-18
-3.68476e-18
-3.73723e-18
5.33646e-19
-4.78741e-20
-8.63057e-19
-2.67699e-19
-1.44941e-19
1.17353e-19
-2.56353e-19
3.35836e-18
8.82244e-19
-3.8748e-18
1.97298e-20
-1.21421e-18
1.1586e-18
-6.17835e-18
-4.84479e-19
4.99029e-18
4.13963e-18
5.26345e-19
3.5248e-18
2.08861e-18
0
4.00445e-20
-1.93684e-19
-2.18469e-18
2.16189e-18
-2.14266e-18
8.87113e-18
3.02139e-18
3.13078e-18
-5.89689e-18
-1.93537e-18
-4.5108e-18
0
-1.53499e-17
-5.14254e-18
-9.30907e-18
-6.28984e-18
-4.17455e-19
4.88953e-19
-5.4177e-19
-5.60809e-19
6.24909e-19
-7.39129e-19
-1.25178e-19
3.20254e-19
-2.00171e-18
-1.91814e-18
7.96476e-19
1.80391e-18
-5.11203e-18
9.61487e-20
3.05444e-18
1.88357e-18
-3.58762e-18
-3.21223e-20
-3.99655e-18
2.6986e-18
-2.21241e-18
-5.85479e-19
0
4.61403e-18
-2.59954e-18
6.80584e-18
-2.15162e-18
2.12791e-18
-4.28928e-18
6.72916e-18
-4.80267e-18
-3.31168e-18
1.52801e-18
-4.37366e-18
0
0
-6.32625e-18
1.55122e-17
2.62204e-18
6.52422e-18
5.19377e-18
1.95179e-18
-1.03376e-18
2.14227e-18
-1.5492e-18
-1.45002e-19
-2.07611e-18
-1.08207e-19
-1.91022e-18
9.60826e-20
-9.80072e-19
-7.60774e-19
1.46677e-18
1.17979e-18
-1.15995e-19
7.66567e-19
-1.65075e-18
4.67547e-18
2.20971e-19
-2.74985e-18
-4.00114e-18
7.86685e-18
-9.91786e-19
1.74656e-18
4.00838e-20
2.08809e-18
-4.50133e-18
-4.67177e-18
-1.94125e-19
6.54269e-18
-6.52866e-18
-6.66201e-18
-1.14839e-17
5.061e-18
-3.04158e-18
1.74043e-18
-4.46892e-19
1.19165e-17
-1.68018e-18
6.3036e-18
2.1564e-18
8.1007e-20
4.90088e-19
6.98972e-19
2.41988e-18
-4.79963e-20
-2.66652e-20
-1.38129e-18
-3.61728e-18
-1.03406e-18
1.78298e-18
1.13603e-19
-2.23231e-18
-2.41743e-18
-1.1255e-18
-1.09707e-18
1.49046e-19
-2.83185e-19
1.36642e-18
1.25236e-18
6.28705e-18
-3.5486e-18
4.0079e-18
3.07847e-18
-4.01051e-20
2.6123e-18
-2.23794e-18
2.59699e-18
-4.29875e-19
-1.92379e-19
-5.00694e-18
-2.72701e-18
-4.8593e-18
-7.3952e-18
5.47861e-18
-3.79246e-19
-2.65891e-18
-3.12017e-18
4.04807e-20
-8.38295e-20
-9.18883e-19
-8.1049e-20
-6.05183e-19
-8.2797e-20
-3.2264e-19
-8.51547e-19
2.5428e-18
7.86107e-19
-2.49441e-18
-2.76352e-18
4.95906e-18
-9.47606e-19
-6.75298e-19
4.13074e-18
1.28738e-18
3.5757e-19
-4.80941e-18
-4.62897e-20
9.64302e-20
0
-2.33057e-18
-6.75336e-19
1.61956e-18
-1.12913e-18
-3.92346e-18
9.21405e-19
4.23883e-19
5.43059e-18
8.30103e-18
1.00764e-17
-2.87613e-18
2.4543e-18
-5.08607e-18
-2.67496e-18
-5.45343e-19
-3.12056e-18
2.22621e-18
1.03051e-17
-2.96534e-19
4.05184e-20
-2.40139e-18
2.93072e-18
6.29643e-19
-1.31081e-19
1.58353e-18
1.67239e-18
-1.32264e-19
5.80089e-19
-2.29482e-19
1.97401e-20
-4.16282e-18
2.83418e-18
1.97821e-20
0
-2.50556e-18
-3.58783e-18
1.9828e-20
2.92002e-19
-1.86111e-18
1.61096e-18
-2.56635e-18
4.92283e-18
-2.40457e-19
-4.45244e-18
1.09325e-18
-2.52686e-18
-1.36178e-18
-2.34629e-19
-5.98851e-19
-5.6976e-18
6.33361e-19
2.42482e-19
2.61884e-18
-7.4559e-18
-1.58553e-17
5.4139e-18
2.47244e-18
2.33128e-18
-5.06854e-19
1.08671e-17
-6.34175e-19
-1.16306e-17
1.36129e-18
1.31761e-18
1.56977e-18
-4.67196e-19
1.19705e-20
-8.58729e-19
1.42553e-18
0
1.04245e-18
-1.02114e-18
-1.12313e-18
5.42699e-19
9.64768e-20
1.02506e-19
-3.5599e-19
3.21507e-18
3.78829e-19
-4.50199e-18
3.97578e-20
0
-2.21051e-19
-5.46896e-18
-4.01763e-20
-2.95243e-18
-1.21659e-18
-1.11854e-18
4.76785e-19
-1.38317e-18
-1.61048e-18
-7.85416e-19
-1.40555e-18
3.1953e-18
1.94923e-19
-3.03825e-18
-4.26103e-19
-9.015e-18
4.79646e-18
-2.78539e-18
-2.40568e-18
-6.69283e-19
0
6.99301e-19
-6.70887e-19
1.52003e-18
1.30658e-18
3.27376e-18
6.7041e-19
8.32472e-19
6.76688e-19
9.6475e-20
2.01513e-18
-4.98866e-18
4.29384e-18
1.39132e-18
-9.65916e-20
-8.27389e-19
0
-1.54099e-18
-3.55525e-18
-1.28966e-18
0
-1.60678e-18
-1.10265e-19
-2.90708e-18
1.13638e-17
1.88525e-18
-6.59309e-18
0
-1.71781e-18
-9.12473e-18
1.51274e-18
-8.40229e-18
-6.2309e-18
-4.13963e-18
4.53243e-18
1.78134e-18
9.69147e-18
3.74725e-18
1.95297e-19
-3.15617e-19
-3.58044e-19
-1.41657e-18
-3.15137e-18
-2.27349e-19
0
-1.74393e-18
1.58071e-18
2.22008e-18
7.92295e-19
-2.03851e-18
-1.9043e-18
-2.92512e-18
1.43356e-18
2.91678e-18
1.16757e-18
-3.45697e-18
-1.48136e-18
7.23788e-18
0
1.59619e-18
-3.50433e-18
1.3353e-18
1.29838e-18
-4.90707e-19
1.12738e-18
-2.25288e-18
-1.66116e-18
-1.33218e-18
2.73165e-19
-3.3738e-19
1.78736e-18
-5.08607e-18
1.9519e-19
-4.69811e-18
-3.25981e-18
-2.36351e-18
6.26698e-19
-1.14833e-17
2.04768e-18
5.52309e-19
6.31306e-19
7.6396e-20
-4.82125e-20
-6.05975e-19
0
-1.32524e-18
-3.3543e-18
-1.28667e-18
-6.12605e-19
1.23018e-18
1.13206e-18
2.06712e-18
-3.47106e-18
4.45123e-18
-2.72651e-18
1.16756e-18
0
-1.72471e-18
6.95177e-18
2.5457e-19
5.96308e-18
-1.69781e-18
2.02051e-18
2.35027e-19
5.46411e-18
5.96377e-18
0
-6.68137e-19
-5.72354e-18
1.54681e-19
5.49855e-18
-7.29813e-18
-6.98936e-18
-2.15794e-18
-3.43891e-18
-4.27173e-18
-1.48251e-18
-1.1775e-18
-5.65579e-18
2.79171e-18
0
-1.87066e-18
2.65237e-18
9.57144e-20
4.53991e-19
-2.41184e-18
-8.35819e-19
-1.61813e-18
-1.98354e-20
-1.21029e-18
-7.43407e-19
-2.19206e-19
-3.39683e-19
1.98966e-20
1.34507e-18
3.94368e-18
1.87014e-19
1.02744e-18
1.99736e-18
1.63382e-18
3.45657e-19
-6.3793e-18
-3.18587e-18
4.19046e-18
5.41371e-19
1.79065e-18
1.98923e-18
3.27267e-18
2.12534e-18
-3.72394e-18
9.64174e-18
3.41309e-19
7.86947e-18
-6.43924e-18
-7.07147e-18
4.06545e-20
1.93436e-18
-2.62804e-18
-2.10586e-18
-8.03958e-18
-9.85278e-19
1.18103e-18
1.6734e-18
2.72099e-18
9.13406e-20
1.30926e-19
-5.9327e-19
-3.11775e-20
5.13598e-18
-4.06098e-18
9.70813e-19
-3.43632e-18
-1.9752e-18
5.14087e-19
1.59035e-19
2.25426e-19
1.23631e-18
3.56167e-18
-1.6292e-18
2.25789e-18
2.04975e-18
-2.84365e-18
-3.33444e-18
8.57958e-19
4.49915e-18
5.76961e-20
2.12179e-18
-3.9124e-19
4.24753e-18
1.90179e-18
-1.05125e-17
4.06108e-20
3.49351e-18
5.43837e-19
6.84278e-18
-2.14579e-18
2.18814e-18
-4.39724e-18
2.32708e-18
6.2679e-18
-1.1401e-19
-3.48988e-19
2.17349e-18
-1.23443e-18
1.89111e-18
5.3711e-19
4.7553e-19
-1.10023e-19
-1.9872e-20
-7.92598e-19
-6.06274e-19
1.99107e-20
8.44785e-19
9.87737e-19
-7.98233e-19
3.13326e-18
3.05183e-18
2.56196e-18
4.46225e-18
4.73685e-18
1.12276e-18
2.54833e-19
-5.23113e-18
2.1738e-18
-7.44042e-18
1.16646e-18
-6.38831e-19
0
2.70111e-18
-2.45027e-18
2.86861e-18
-3.63287e-18
-2.29264e-18
5.40558e-18
-1.8542e-19
-2.30775e-18
-2.18731e-18
-2.56315e-18
2.37848e-18
-5.59291e-18
0
0
4.32765e-20
-1.63067e-19
-1.03714e-19
-9.92415e-21
8.47308e-20
1.796e-18
8.50689e-19
-1.99049e-20
-3.59262e-18
-1.31487e-18
1.0125e-18
3.88097e-18
2.951e-19
1.74144e-18
-8.15327e-19
1.15346e-18
0
2.88764e-19
-1.94023e-18
4.39654e-18
1.09403e-18
1.51482e-18
4.68365e-19
-1.30426e-18
-1.2829e-18
-1.22705e-18
1.45968e-18
-4.18222e-18
-6.15083e-19
-4.06898e-20
2.67796e-18
-8.43931e-19
2.53322e-18
-1.55458e-19
5.33987e-18
-3.66901e-18
-1.19461e-17
1.29573e-18
-5.16488e-19
-4.46868e-19
2.36293e-18
9.56458e-19
-1.40156e-18
9.93411e-21
-1.74077e-18
3.718e-19
-1.63316e-18
2.45311e-19
0
-1.34121e-18
1.67153e-18
-1.15191e-18
-3.41583e-19
-7.72931e-20
1.38683e-18
1.66353e-19
0
4.88337e-19
1.87972e-18
4.47487e-18
-4.6678e-18
1.27406e-18
5.87426e-18
4.46906e-18
1.02605e-17
-4.55367e-19
-2.98664e-18
1.58932e-18
5.53478e-18
8.26402e-19
-4.38032e-18
7.7188e-18
-7.94065e-19
6.22448e-19
3.53493e-19
1.38022e-18
-9.56968e-18
-3.31574e-19
0
-2.48373e-18
-5.06652e-19
1.31377e-19
-1.19356e-19
-7.10367e-19
-1.37835e-18
-5.69187e-20
4.65906e-19
8.7977e-19
1.99602e-20
1.14555e-19
-1.39822e-18
9.59765e-19
-3.33243e-18
7.36389e-19
1.72455e-18
4.35253e-18
2.66413e-18
-1.37721e-18
0
8.06167e-19
-1.4497e-18
-1.68107e-18
3.48297e-18
-6.64621e-18
1.7965e-18
1.51119e-18
5.07947e-18
1.05324e-18
1.3759e-18
1.74466e-18
-7.69254e-18
-4.60193e-18
4.55349e-19
3.36819e-18
-4.91388e-18
-2.40138e-19
-3.41685e-18
-3.39602e-18
1.17155e-18
-9.96525e-19
1.55294e-19
-1.86082e-18
6.84955e-19
5.86146e-20
-2.71084e-18
-1.48032e-18
-9.69852e-19
-1.39371e-19
1.01423e-18
1.04975e-18
-8.30829e-19
8.59814e-19
4.67319e-19
9.76927e-19
-1.04957e-18
-1.27698e-18
7.75614e-20
-2.89145e-18
1.82187e-19
-1.53574e-18
2.94468e-19
-3.0539e-18
-5.45026e-18
-2.37604e-19
-2.50152e-19
-2.17137e-18
2.86748e-19
3.71041e-18
1.92579e-18
3.79016e-18
2.87622e-19
-1.41025e-18
-5.48063e-18
-7.25016e-18
-4.14865e-18
-2.02389e-18
-4.0915e-18
-6.30637e-18
-1.955e-18
0
1.47845e-18
1.09112e-18
7.49927e-19
1.5943e-18
1.45781e-19
1.31088e-18
2.41199e-18
8.7309e-20
-6.58301e-19
-1.73442e-18
-3.61061e-19
-8.11085e-19
-6.45657e-19
6.85453e-19
-3.24914e-18
2.95899e-18
8.17956e-19
-4.28808e-18
-2.12163e-18
0
8.49352e-19
3.05966e-18
-1.88235e-18
-2.60911e-18
6.65072e-18
1.31582e-18
1.02971e-18
1.65005e-18
2.75138e-19
-9.746e-19
-6.68653e-19
-2.0505e-18
1.03899e-17
6.28964e-18
3.29342e-19
-7.69037e-19
-3.74396e-19
-3.82894e-19
-3.01198e-19
4.62725e-19
-1.39822e-19
4.91616e-19
-3.21989e-18
-8.14768e-19
9.76857e-20
-2.48835e-19
2.78274e-18
4.37069e-19
4.1991e-19
7.91652e-19
8.72702e-19
-2.47539e-18
1.34936e-18
-6.82367e-19
1.99783e-19
1.15459e-18
0
-5.16036e-18
2.02802e-20
-4.16001e-20
4.77764e-18
-3.78776e-18
-4.44957e-18
1.92227e-18
7.02529e-19
1.3474e-18
-1.10119e-18
4.6254e-18
2.46041e-19
-1.99064e-19
3.1443e-18
3.72602e-18
-5.60436e-18
1.10277e-18
4.10684e-20
-7.19586e-19
-3.79206e-19
-4.81127e-18
0
6.87291e-19
1.85511e-18
5.37435e-19
1.07992e-18
0
1.28252e-18
-1.22727e-19
-1.12003e-19
1.24487e-18
2.37602e-18
1.65273e-18
3.87313e-18
9.98608e-19
0
4.76759e-19
-1.926e-18
0
0
-1.84795e-18
0
0
1.31892e-18
1.31248e-18
1.21173e-18
2.31498e-18
1.96905e-19
3.71068e-18
2.30921e-18
1.96954e-19
-1.30429e-18
1.97818e-19
1.31142e-18
5.07311e-18
1.22594e-18
-1.43366e-18
-2.67134e-18
-3.93485e-18
0
-5.25463e-18
0
6.58195e-19
0
1.65968e-18
0
0
1.36664e-18
-1.70558e-19
-8.18304e-19
2.61759e-18
0
0
4.56578e-18
1.40124e-19
8.0272e-19
-2.31054e-19
0
-1.29348e-18
0
2.31093e-18
-2.65115e-18
9.57585e-20
-2.70973e-18
-1.25242e-18
-3.83784e-18
-1.97266e-19
1.96905e-19
0
-1.43719e-18
-3.62385e-18
-2.58364e-18
1.97818e-19
0
0
-1.26197e-18
-2.01255e-19
-1.27605e-18
-1.28424e-18
4.07163e-18
-4.10058e-18
0
0
-1.96003e-18
0
0
0
0
-1.71604e-18
-1.12003e-19
-5.43196e-20
-2.51201e-18
0
1.00071e-18
-8.65115e-19
0
-2.31054e-19
9.55122e-20
-1.94528e-18
0
-8.55282e-19
0
1.40045e-18
-1.29608e-18
0
0
-1.97266e-19
1.96905e-19
5.29892e-18
-1.96761e-19
-1.1771e-18
-5.40944e-18
1.97818e-19
4.15169e-18
-1.48506e-18
1.29905e-18
-2.01255e-19
-1.31355e-18
0
-2.85447e-18
-2.68218e-18
-8.07974e-19
0
0
1.75866e-18
0
2.59898e-18
-1.84352e-18
-1.22727e-19
1.33702e-18
-6.50635e-21
-3.20487e-18
1.22792e-18
1.03011e-18
-7.96287e-19
0
-1.00311e-18
-1.40055e-18
6.34713e-19
-1.24526e-18
2.42806e-18
1.35391e-18
-2.97335e-18
1.33416e-18
-1.32711e-18
-2.93096e-18
-1.97266e-19
2.92792e-19
-1.3143e-18
-2.92149e-18
-1.21466e-18
0
1.97818e-19
2.84348e-18
-1.52306e-18
0
2.48728e-18
-2.89638e-18
8.54917e-18
1.37028e-18
0
8.06207e-19
0
6.10608e-19
0
0
-2.11777e-18
4.62111e-19
2.99355e-19
-8.82416e-19
2.05329e-18
0
0
0
1.40124e-19
-8.75584e-19
6.59223e-19
-7.20853e-19
0
-9.54824e-20
1.55715e-19
4.37254e-18
-2.86076e-18
1.37337e-18
0
0
4.16008e-18
1.64687e-18
-9.59078e-20
-1.45386e-18
-1.25332e-18
-2.90541e-18
-1.25838e-18
9.59941e-20
2.7403e-18
-2.94508e-18
-1.58503e-18
1.58397e-18
5.79536e-18
-4.42378e-18
3.03429e-18
0
3.69519e-19
1.45142e-18
0
1.13756e-18
1.13644e-18
0
-1.22727e-19
-1.12003e-19
6.6886e-19
2.07242e-18
1.89536e-18
2.27866e-18
1.40124e-19
0
5.87049e-19
0
1.34513e-18
0
2.51184e-19
-5.21272e-18
-8.07321e-19
0
1.50206e-18
-9.58411e-20
-1.97266e-19
1.96905e-19
0
2.78066e-18
1.96954e-19
0
1.97818e-19
0
4.42326e-18
2.83394e-18
2.83968e-18
1.43278e-18
-1.63409e-18
0
-1.46282e-18
1.7057e-18
8.08639e-19
2.53125e-19
0
0
0
-9.79337e-19
-1.22727e-19
-1.12003e-19
-1.02133e-19
-7.73908e-19
0
0
1.40124e-19
0
5.15561e-19
2.38703e-18
-2.17248e-18
-1.9767e-18
1.55715e-19
0
-5.41458e-18
0
0
0
-1.97266e-19
1.96905e-19
0
1.33288e-18
1.01008e-19
0
1.54317e-18
-1.63808e-18
-1.45186e-18
-1.45861e-18
1.45711e-18
6.09162e-18
1.67646e-18
0
1.31365e-18
0
1.22255e-18
0
0
6.98416e-19
5.51405e-19
0
-1.22727e-19
-1.12003e-19
-1.02133e-19
-2.88853e-18
0
0
-1.53257e-18
-1.05061e-18
-3.26581e-19
3.33617e-18
1.42534e-18
-1.38648e-18
-2.27681e-18
-1.61593e-18
-3.11174e-18
1.49803e-18
7.45053e-19
0
-1.97266e-19
1.96905e-19
-1.57163e-18
-1.96761e-19
-1.2803e-18
-1.57586e-18
1.97818e-19
-9.59941e-20
-3.18106e-18
4.69645e-18
-2.01255e-19
-1.51822e-18
0
9.61579e-18
-3.29228e-18
0
-1.61224e-18
7.39361e-19
7.25429e-19
0
0
5.66709e-19
1.29905e-18
-2.41807e-18
1.57114e-18
0
6.5438e-19
-5.95312e-19
-2.12008e-18
-9.83127e-19
1.6492e-18
1.61878e-18
6.38116e-19
1.32894e-18
1.26311e-18
0
-6.80394e-19
-9.57881e-20
-7.66947e-19
3.24701e-18
-1.97266e-19
1.6214e-18
-4.94089e-18
-1.8119e-18
-4.65289e-18
0
1.01839e-19
3.16064e-18
-2.88486e-18
0
-3.50079e-18
-3.31776e-18
-3.14573e-18
0
-3.38337e-18
-1.38007e-18
-4.14905e-19
3.80544e-19
7.45339e-19
-6.38643e-19
1.16858e-18
1.11607e-18
4.12955e-19
3.33226e-19
-1.02133e-19
-2.31522e-18
6.73609e-19
0
-1.62662e-18
1.01202e-18
-1.14964e-18
-1.66635e-18
-1.51034e-18
0
1.55715e-19
-8.05429e-19
-8.94718e-19
0
-8.85299e-19
-3.33679e-18
-2.54922e-18
2.5445e-18
0
-1.96761e-19
1.96954e-19
0
-1.66229e-18
0
3.35931e-18
-3.18201e-18
-5.19149e-18
5.01837e-18
0
0
-1.83465e-18
0
-4.74981e-19
3.32531e-18
7.17969e-19
-7.53124e-19
0
-1.1953e-18
9.77307e-19
-5.70315e-19
-1.02133e-19
4.76088e-18
1.4824e-18
0
-2.24916e-18
-5.20877e-19
-1.35526e-19
-1.71532e-18
7.77361e-19
0
4.17045e-18
0
-5.12614e-18
0
-1.62537e-18
8.09383e-19
-1.97266e-19
-1.31826e-18
0
-3.60823e-18
1.96954e-19
0
2.10412e-18
1.7197e-18
-1.92017e-19
3.27552e-18
4.92998e-18
3.31206e-18
3.33332e-18
0
3.57368e-18
-2.40934e-20
0
-4.03237e-19
1.15647e-18
0
0
0
-1.22727e-19
-1.12003e-19
9.49547e-19
-7.8399e-19
7.13779e-19
3.4379e-18
1.40124e-19
2.872e-18
-2.31054e-19
8.82861e-19
0
2.26983e-18
1.55715e-19
2.65611e-18
-4.32878e-18
-1.77781e-18
9.58156e-20
-4.35752e-18
2.3908e-18
2.92792e-19
3.50577e-18
4.2338e-18
1.2182e-18
1.85359e-18
1.97818e-19
0
-1.92017e-19
1.68588e-18
-2.01255e-19
3.40939e-18
-7.24678e-18
-5.37482e-18
1.74044e-18
-4.93019e-19
-5.00451e-19
2.17118e-18
1.09331e-18
1.5368e-18
0
0
-1.187e-18
-1.12003e-19
-1.02133e-19
-1.70967e-18
3.1302e-18
6.68431e-19
1.35538e-18
0
-2.23499e-18
0
-1.83843e-18
4.66745e-18
7.35552e-19
-1.8528e-18
-1.74297e-18
-3.65447e-18
1.81811e-18
9.58411e-20
-2.09929e-18
1.96905e-19
1.80158e-18
-1.24152e-18
-4.55138e-18
1.61453e-18
-7.14158e-18
9.59941e-20
0
0
-2.01255e-19
0
0
-5.52711e-18
1.92161e-19
5.07506e-19
-1.91134e-18
1.85276e-18
4.39436e-19
7.64941e-19
-1.35995e-18
-6.47558e-19
1.06848e-18
-1.12003e-19
1.81697e-18
-8.30743e-19
0
0
1.40124e-19
5.68158e-19
-2.3894e-18
-9.3551e-19
2.73477e-18
-9.5897e-19
1.64148e-18
0
-1.88994e-18
-1.87812e-18
3.83325e-18
0
-1.97266e-19
-6.8174e-19
0
3.60289e-18
1.96954e-19
0
9.84473e-19
9.81538e-19
2.85925e-18
0
-2.01255e-19
0
0
0
-2.03639e-18
0
1.00699e-18
0
4.50943e-19
-4.16935e-19
-2.12169e-18
0
-1.22727e-19
-1.12003e-19
9.32023e-19
0
1.65273e-18
2.12488e-18
1.42785e-18
0
-2.31054e-19
-9.63e-19
-8.7284e-19
0
2.51184e-19
0
-9.23453e-19
0
0
0
-4.82384e-18
1.96905e-19
0
-1.00834e-19
-2.70883e-18
-4.6272e-18
1.97818e-19
1.82313e-18
0
-2.95042e-18
-2.01255e-19
1.12181e-18
2.06348e-18
0
0
0
5.63787e-19
4.78753e-20
9.15121e-19
-1.68392e-18
-7.74366e-19
7.11973e-19
-7.29333e-19
-6.65611e-19
-1.02133e-19
3.64376e-19
8.37582e-19
1.61953e-18
8.32789e-19
1.35391e-18
-2.31054e-19
0
0
0
-6.14097e-19
-1.09722e-18
9.93446e-19
-9.57881e-20
0
-1.95535e-18
1.84825e-18
-2.91393e-18
0
-1.0731e-18
1.07421e-18
6.04155e-18
1.97818e-19
-1.17265e-18
1.96914e-18
-1.9783e-18
-2.38204e-18
0
2.20533e-18
-8.2146e-19
8.55359e-18
-1.10788e-18
-4.9743e-19
1.92069e-18
-1.76813e-18
1.5792e-18
-7.48352e-19
0
4.62158e-19
-1.12003e-19
-1.02133e-19
0
2.61396e-18
-7.34693e-19
-5.27739e-19
-1.21331e-18
-2.31054e-19
0
-1.00087e-18
0
1.55715e-19
1.06136e-18
-9.57874e-19
-3.04621e-18
2.08466e-18
0
-2.0771e-18
-1.67945e-18
-9.59078e-20
-1.96761e-19
1.96954e-19
0
1.14025e-18
3.78217e-18
0
0
1.90832e-18
-9.6437e-19
2.13324e-18
4.10136e-18
2.16135e-18
-5.70675e-19
-4.78843e-20
9.2767e-19
0
7.38252e-19
0
-5.21744e-19
-1.22727e-19
-1.75166e-18
-1.02133e-19
-8.55267e-19
9.55926e-20
-7.08385e-19
-1.24333e-18
0
-1.29291e-18
0
-1.84141e-18
0
-1.37109e-18
1.86211e-18
-1.94291e-18
0
4.75473e-18
-1.00476e-18
1.80699e-18
1.96905e-19
9.99719e-19
-2.19638e-18
4.00785e-18
0
-7.10872e-19
0
9.15325e-19
0
1.64759e-18
0
-2.06373e-18
0
0
-5.27873e-19
4.62444e-19
0
0
-4.78573e-20
0
0
-1.25805e-18
8.80482e-19
2.70862e-18
2.56954e-18
8.46383e-19
0
-1.19722e-18
2.35149e-18
-1.25489e-18
0
8.41697e-19
-4.00279e-18
-1.31984e-18
0
0
-8.84619e-19
0
0
6.76545e-19
1.96905e-19
0
-1.06828e-18
1.96954e-19
-9.69875e-19
-6.78334e-19
2.63712e-18
0
0
-2.01255e-19
-3.77827e-18
5.6059e-18
-3.63428e-18
0
0
0
-8.17916e-19
0
1.46837e-18
-1.35153e-18
2.39167e-18
9.25829e-19
-1.12003e-19
3.81998e-19
-7.95114e-19
8.19499e-19
0
-2.35007e-18
0
-2.31054e-19
0
-2.62567e-18
3.03575e-18
1.55715e-19
0
-1.71723e-18
0
-1.69687e-18
0
-1.97266e-19
2.91156e-18
5.23328e-18
-9.41146e-19
-7.4011e-19
9.59627e-20
-3.37326e-18
0
1.92017e-19
0
-3.83095e-18
-3.45776e-18
0
0
0
0
4.29919e-19
0
0
7.57468e-19
0
3.41635e-18
3.82778e-19
3.9716e-19
-1.02133e-19
-2.39554e-18
1.49156e-18
6.34981e-19
-2.26432e-18
-1.6685e-18
-2.31054e-19
0
0
0
1.55715e-19
-1.76488e-18
-5.35027e-18
0
0
0
-1.97266e-19
1.96905e-19
0
-4.43973e-18
1.01008e-19
-3.34575e-18
1.97818e-19
0
0
-5.13778e-18
-2.01255e-19
-1.66697e-18
-3.54746e-18
1.68933e-18
-1.70193e-18
7.89762e-18
-8.62374e-18
0
-3.86862e-19
-6.24757e-18
5.49853e-18
3.10854e-18
2.6061e-18
5.3901e-19
-6.70937e-18
1.24273e-18
-1.38396e-18
2.77624e-18
5.37578e-18
-4.20455e-18
-2.88294e-20
-2.44795e-18
-1.35428e-18
-1.3727e-18
6.07756e-19
-1.14823e-17
1.69007e-17
3.76247e-18
-5.84474e-18
1.8881e-19
-2.0209e-17
7.54842e-20
-8.7489e-18
-9.31281e-19
2.4016e-17
7.19626e-18
0
2.5508e-17
-1.19952e-17
0
-1.91724e-17
-1.48798e-17
-1.86015e-17
-6.98348e-18
2.56431e-17
-2.49372e-17
-2.97997e-17
2.28643e-17
2.63025e-17
2.51235e-17
3.81774e-17
-1.15565e-17
8.53866e-18
-1.12038e-17
-5.87863e-17
6.51137e-17
7.21846e-17
-6.91769e-17
1.44596e-18
-9.74075e-17
1.49619e-17
3.0406e-19
4.27595e-18
-4.7129e-18
2.35615e-17
1.50565e-18
-3.53067e-19
0
2.93507e-18
4.42009e-18
-9.34219e-19
-4.77407e-18
-5.60314e-19
4.45754e-18
-1.1411e-17
-4.7131e-18
2.08391e-17
1.86107e-18
6.64097e-18
4.61834e-18
0
1.29261e-17
1.82715e-17
-7.23303e-18
-2.91432e-17
9.74767e-18
1.29371e-17
-5.3386e-17
-7.12983e-18
2.55134e-17
1.0432e-17
-3.0474e-18
-1.0625e-17
3.22157e-17
3.26257e-17
2.55901e-18
2.18472e-18
0
1.42333e-17
1.85607e-18
1.68656e-17
2.60885e-17
-6.39035e-17
-1.36686e-17
-8.46815e-18
-3.97998e-19
4.11703e-18
4.74688e-18
3.57858e-18
-1.64138e-17
-3.82754e-19
1.03632e-17
-7.95017e-20
8.16292e-18
-1.19919e-17
1.79242e-18
-2.26376e-17
4.27257e-18
1.73574e-17
2.82225e-17
-1.59081e-19
-4.71887e-18
2.08977e-17
2.76497e-18
1.19521e-17
1.13354e-18
-1.95707e-18
2.33602e-18
5.29774e-17
-2.77816e-17
-1.25124e-17
3.42438e-17
-2.56254e-17
-1.04241e-17
-4.93775e-17
-2.07078e-17
4.03492e-18
2.27424e-17
5.45039e-17
1.28111e-17
4.89951e-18
2.59029e-18
4.45493e-17
-5.58932e-17
4.45338e-17
-1.1424e-17
-4.35578e-18
-3.2999e-18
6.56647e-19
-1.76334e-17
-7.97746e-19
5.12924e-18
-4.08999e-18
-1.70584e-17
7.15133e-19
-6.30049e-18
2.33069e-17
9.24752e-19
0
-3.77931e-18
6.07659e-18
-5.73531e-18
-1.93666e-17
1.74338e-17
-2.27388e-18
-6.38083e-18
-1.55189e-17
2.56238e-17
-3.76021e-18
1.35525e-18
-1.59318e-19
1.04108e-17
-8.2526e-19
-6.36079e-17
5.87977e-18
-2.7516e-18
7.89601e-18
-2.03222e-17
-1.60426e-17
1.95534e-17
3.30529e-17
-2.91488e-17
-3.49362e-17
-1.6661e-17
-2.41631e-17
-9.97207e-18
2.8738e-18
-3.36833e-18
2.11018e-18
-1.6877e-17
6.69702e-18
-1.4141e-17
-6.85848e-19
4.84236e-19
-2.36397e-18
8.16205e-18
6.73071e-18
-7.39687e-18
1.58961e-19
2.96517e-17
-1.03308e-17
7.65927e-19
-8.3341e-18
1.01805e-17
6.53911e-18
6.40191e-18
3.80818e-17
-2.16521e-17
-1.59214e-19
-7.66628e-19
-1.38405e-17
-1.04065e-17
-4.55886e-17
-6.65048e-19
-1.85684e-17
3.19051e-19
1.53499e-18
1.82374e-17
-4.48113e-17
2.17393e-17
3.19727e-19
-2.59351e-18
-4.83024e-18
1.43531e-17
-9.7857e-18
1.26507e-18
-4.32042e-18
-5.88553e-19
-1.04022e-17
-3.29316e-18
1.10477e-17
-7.9407e-20
9.20376e-18
4.27044e-18
7.8592e-18
7.39018e-18
2.19689e-18
7.45475e-18
0
-1.75736e-18
-5.4335e-18
-1.1513e-17
-3.35929e-17
-3.29745e-17
2.33032e-17
-7.54995e-18
7.48252e-18
-3.34992e-18
-9.17861e-19
-3.80924e-17
1.49758e-18
-3.287e-17
-3.31129e-17
-1.03791e-17
1.94746e-17
2.63028e-17
1.09325e-17
-7.16938e-17
-1.51215e-17
2.71083e-17
-1.03755e-17
-2.6256e-17
1.28321e-17
-1.46041e-17
-4.76695e-18
6.32487e-18
4.68289e-18
3.04163e-18
3.30339e-18
-6.8095e-18
-6.29672e-18
-5.08934e-18
-7.93805e-20
2.60772e-17
-2.70503e-19
2.44839e-18
2.20068e-17
-3.51439e-17
1.38297e-17
1.83318e-18
5.30489e-18
-1.16609e-17
-4.23743e-19
-2.70976e-17
1.90054e-17
3.15156e-17
-8.13693e-18
2.13896e-17
3.19396e-17
-1.39243e-17
7.66587e-19
1.03652e-17
1.97091e-17
-2.21472e-18
-4.89932e-18
-2.64114e-17
1.26381e-17
-2.01469e-17
1.74141e-17
1.9058e-17
-4.49816e-17
4.01586e-17
1.38052e-17
2.33745e-17
-1.6998e-17
8.67436e-18
-5.18499e-18
3.9777e-18
9.87126e-18
-3.40144e-18
-6.31885e-18
-4.8175e-18
-1.41764e-17
1.10351e-18
-8.04123e-18
1.59307e-17
-1.37622e-17
-9.98413e-19
-1.23637e-17
1.77142e-17
-1.66146e-17
-3.24524e-17
8.47283e-18
-1.46244e-18
-2.29295e-17
-1.46957e-17
1.64668e-18
5.80399e-18
7.78813e-18
1.59157e-19
-1.59198e-19
7.6663e-19
-2.23879e-17
1.89835e-17
-3.72094e-17
-4.25453e-18
8.66719e-18
6.00969e-18
3.63582e-17
-3.21589e-17
4.94039e-17
4.11136e-17
-4.36535e-17
1.26102e-17
1.28016e-17
-2.6101e-18
7.92473e-20
-1.01702e-17
-1.07274e-17
-9.61391e-18
-2.9049e-18
-1.98015e-19
7.93135e-20
7.93248e-20
2.42648e-17
-6.60399e-18
2.87222e-18
7.91592e-18
-1.42336e-17
-1.22477e-17
2.89108e-18
-8.71999e-19
4.55223e-18
-1.79287e-18
1.3553e-17
-7.97901e-18
-1.49275e-17
-2.32999e-17
1.42065e-18
2.63366e-17
-2.42405e-17
1.33817e-17
-4.50282e-17
-3.19074e-17
3.18726e-19
-3.81292e-17
-1.76087e-17
1.80374e-17
2.35742e-18
1.69506e-17
2.62287e-18
-5.67762e-17
-2.16708e-17
3.20076e-19
-3.87737e-17
-3.95888e-20
4.29341e-18
-3.68924e-18
-1.15749e-18
6.95294e-18
-6.76986e-18
-8.3111e-18
-4.60848e-18
-4.49452e-18
9.75385e-19
0
-7.23334e-18
6.57362e-18
-7.77258e-18
-3.78004e-18
-1.58778e-19
7.4682e-18
-4.48875e-18
1.8056e-18
9.26289e-18
-6.91599e-18
-7.3818e-18
-2.85058e-17
7.17343e-18
1.71488e-18
-1.31771e-17
0
-1.59231e-19
1.03236e-17
-3.28117e-17
3.42441e-17
-3.20626e-17
0
3.14403e-17
-1.86374e-17
-7.46738e-17
8.19912e-18
-1.0711e-17
0
4.4474e-18
-2.51611e-18
4.26516e-18
9.38409e-18
7.9175e-20
-2.27031e-19
-6.62211e-18
2.02633e-17
1.59727e-17
-1.37461e-17
1.03221e-17
-7.47004e-18
-3.82357e-19
-6.63279e-18
-2.12624e-17
-1.73286e-17
-1.08002e-17
-2.3456e-19
-9.6684e-18
-1.14977e-17
-1.9871e-17
-1.68661e-17
9.83722e-18
-1.48627e-17
2.06445e-17
-3.1169e-17
9.5399e-18
-4.1081e-19
-2.24342e-17
-6.59327e-17
2.42449e-18
2.47367e-18
0
6.86941e-17
3.28719e-17
-2.94508e-17
1.69798e-17
-1.04042e-17
-4.52365e-18
-2.56199e-18
1.19556e-17
0
-1.14535e-19
-2.83998e-18
-4.19504e-18
9.26952e-19
-9.4143e-18
7.84035e-19
-7.46297e-19